[Molden Format]

[FREQ]
        -226.6157048296
         -40.3322197969
          43.7120080159
         142.9162988605
         186.0915277334
         596.3089791480
         679.3142639613
         757.8629082297
         807.6025990967
         915.2934212188
         919.7358591008
         955.6889904290
        1047.0339579609
        1052.3755919574
        1053.4551293212
        1080.5262952805
        1131.2529314022
        1356.7888126585
        1457.5048407538
        1463.2700542538
        1703.6624241281
        3132.3042039262
        3132.8270301541
        3139.7209482386
        3169.1212374032
        3221.8133916451
        3222.9107479456

[FR-COORD]
C          2.0219513113        0.0169354787       -1.3182116575
C          1.2616832577        0.0000000000        1.4214466646
C         -1.2616832577       -0.0000000000        1.4214466646
C         -2.0219513113       -0.0169354787       -1.3182116575
H          2.7849362958       -1.7079181488       -2.1465764270
H          2.7802866449        1.7547828468       -2.1234054897
H          2.5411381088       -0.0036171384        3.0407803722
H         -2.5411381088        0.0036171384        3.0407803722
H         -2.7849362958        1.7079181488       -2.1465764270
H         -2.7802866449       -1.7547828468       -2.1234054897

[FR-NORM-COORD]
vibration 1
           0.4336943894        0.0058880634        0.0562492721
          -0.0030434009        0.0141821764       -0.0709416588
           0.0030434009       -0.0141821764       -0.0709416588
          -0.4336943894       -0.0058880634        0.0562492721
           0.3338314538       -0.0367641451        0.0735157939
           0.4035966099        0.0157679174        0.0682960401
          -0.1207538422        0.0422569471        0.0331278973
           0.1207538422       -0.0422569471        0.0331278973
          -0.3338314538        0.0367641451        0.0735157939
          -0.4035966099       -0.0157679174        0.0682960401
vibration 2
           0.0023029521       -0.1753400223        0.0016211820
          -0.0025192281        0.1894839376        0.0021281935
          -0.0025192281        0.1894839376       -0.0021281935
           0.0023029521       -0.1753400223       -0.0016211820
           0.0025307596       -0.2870278049        0.2340868338
           0.0052416538       -0.2842072816       -0.2302743524
          -0.0051972521        0.4028259099        0.0046517531
          -0.0051972521        0.4028259099       -0.0046517531
           0.0025307596       -0.2870278049       -0.2340868338
           0.0052416538       -0.2842072816        0.2302743524
vibration 3
          -0.0118865372       -0.0010938293       -0.0016698144
          -0.0001431408        0.1586574921        0.0021065640
           0.0001431408       -0.1586574921        0.0021065640
           0.0118865372        0.0010938293       -0.0016698144
          -0.3153882331       -0.1783286715        0.0937907710
           0.2976551815       -0.1779227690       -0.0992731918
           0.0022484844        0.4522113284        0.0002821172
          -0.0022484844       -0.4522113284        0.0002821172
           0.3153882331        0.1783286715        0.0937907710
          -0.2976551815        0.1779227690       -0.0992731918
vibration 4
           0.1341247023        0.0030406981        0.1890812327
          -0.1453867049       -0.0031497481        0.1237146144
          -0.1453867049       -0.0031497481       -0.1237146144
           0.1341247023        0.0030406981       -0.1890812327
           0.2226502065        0.0031506756        0.2712573431
           0.2213067723        0.0056116547        0.2773966258
          -0.3098622435       -0.0074638905        0.2541773240
          -0.3098622435       -0.0074638905       -0.2541773240
           0.2226502065        0.0031506756       -0.2712573431
           0.2213067723        0.0056116547       -0.2773966258
vibration 5
          -0.0024178915        0.2152758683       -0.0000207250
          -0.0000232164        0.1138980959        0.0000630167
           0.0000232164       -0.1138980959        0.0000630167
           0.0024178915       -0.2152758683       -0.0000207250
           0.2803194062        0.3479237278       -0.0147837050
          -0.2876651546        0.3466110511        0.0142597541
           0.0001925244        0.1942559789        0.0000203901
          -0.0001925244       -0.1942559789        0.0000203901
          -0.2803194062       -0.3479237278       -0.0147837050
           0.2876651546       -0.3466110511        0.0142597541
vibration 6
          -0.0001144682       -0.0282460463        0.0005674634
           0.0007311500       -0.0301658344        0.0008843305
           0.0007311500       -0.0301658344       -0.0008843305
          -0.0001144682       -0.0282460463       -0.0005674634
           0.3913081691        0.1773663546       -0.0583907147
          -0.3984818289        0.1756126790        0.0578504507
          -0.0001690651        0.3425212223        0.0022532352
          -0.0001690651        0.3425212223       -0.0022532352
           0.3913081691        0.1773663546        0.0583907147
          -0.3984818289        0.1756126790       -0.0578504507
vibration 7
           0.0027730639       -0.0966200886       -0.0002172328
          -0.0000339704        0.0915569875        0.0001303802
           0.0000339704       -0.0915569875        0.0001303802
          -0.0027730639        0.0966200886       -0.0002172328
           0.3734676157       -0.0893249097        0.3061253802
          -0.3654836565       -0.0869192930       -0.3050260283
          -0.0001151027       -0.0832478907       -0.0000652130
           0.0001151027        0.0832478907       -0.0000652130
          -0.3734676157        0.0893249097        0.3061253802
           0.3654836565        0.0869192930       -0.3050260283
vibration 8
          -0.1630276218        0.0000312800        0.1790952936
           0.2113748597        0.0002936870        0.2327108892
           0.2113748597        0.0002936870       -0.2327108892
          -0.1630276218        0.0000312800       -0.1790952936
          -0.3624475772       -0.0006443339        0.0067059442
          -0.3403139036       -0.0065659105        0.0089152349
           0.1270992021        0.0033409186        0.2810657366
           0.1270992021        0.0033409186       -0.2810657366
          -0.3624475772       -0.0006443339       -0.0067059442
          -0.3403139036       -0.0065659105       -0.0089152349
vibration 9
          -0.0000375771        0.0019418199       -0.0006732368
          -0.0004883803       -0.0429036943       -0.0010328141
          -0.0004883803       -0.0429036943        0.0010328141
          -0.0000375771        0.0019418199        0.0006732368
          -0.2630062962       -0.0059420503       -0.2258583811
           0.2703191130       -0.0080001457        0.2304894092
          -0.0010503320        0.5016682175        0.0004665532
          -0.0010503320        0.5016682175       -0.0004665532
          -0.2630062962       -0.0059420503        0.2258583811
           0.2703191130       -0.0080001457       -0.2304894092
vibration 10
           0.1026204227        0.0003882969       -0.0508909388
          -0.0370265856       -0.0005333941        0.0629488685
          -0.0370265856       -0.0005333941       -0.0629488685
           0.1026204227        0.0003882969        0.0508909388
          -0.2942063844       -0.0265970628       -0.3447953350
          -0.2860144281        0.0277079868       -0.3408752569
          -0.2007937687        0.0006167233        0.1905521717
          -0.2007937687        0.0006167233       -0.1905521717
          -0.2942063844       -0.0265970628        0.3447953350
          -0.2860144281        0.0277079868        0.3408752569
vibration 11
          -0.0667153340        0.0000899131        0.0009060122
          -0.0083665171       -0.0009756888       -0.0444184969
           0.0083665171        0.0009756888       -0.0444184969
           0.0667153340       -0.0000899131        0.0009060122
           0.3743812879        0.0354022965        0.3129607695
           0.3714228313       -0.0354052050        0.3142067881
           0.0653945355        0.0061399037       -0.1090718558
          -0.0653945355       -0.0061399037       -0.1090718558
          -0.3743812879       -0.0354022965        0.3129607695
          -0.3714228313        0.0354052050        0.3142067881
vibration 12
           0.0012329283       -0.0755961429       -0.0000375160
          -0.0002297749       -0.0597002225       -0.0000696886
           0.0002297749        0.0597002225       -0.0000696886
          -0.0012329283        0.0755961429       -0.0000375160
           0.1755280271        0.0731615125       -0.1496048701
          -0.1821376689        0.0717837055        0.1464747815
          -0.0041956834        0.6102100468        0.0044065553
           0.0041956834       -0.6102100468        0.0044065553
          -0.1755280271       -0.0731615125       -0.1496048701
           0.1821376689       -0.0717837055        0.1464747815
vibration 13
           0.0617400682       -0.0078124271        0.1700293099
          -0.0304132386        0.0079188582       -0.1184156462
          -0.0304132386        0.0079188582        0.1184156462
           0.0617400682       -0.0078124271       -0.1700293099
          -0.3311962162       -0.0400319505       -0.0916931653
          -0.3277270451        0.0596447264       -0.0175867966
           0.2859200685       -0.0208800324       -0.3728914475
           0.2859200685       -0.0208800324        0.3728914475
          -0.3311962162       -0.0400319505        0.0916931653
          -0.3277270451        0.0596447264        0.0175867966
vibration 14
           0.0033029372        0.0870624625        0.0096900447
          -0.0015750756       -0.0901266138       -0.0071319209
          -0.0015750756       -0.0901266138        0.0071319209
           0.0033029372        0.0870624625       -0.0096900447
          -0.0260925039       -0.1289520931        0.4261231001
          -0.0092301410       -0.1186587761       -0.4356293283
           0.0147492937        0.2840951936       -0.0195749591
           0.0147492937        0.2840951936        0.0195749591
          -0.0260925039       -0.1289520931       -0.4261231001
          -0.0092301410       -0.1186587761        0.4356293283
vibration 15
           0.0003745693       -0.0952515669       -0.0012196785
           0.0004053004        0.1322434082        0.0010696017
          -0.0004053004       -0.1322434082        0.0010696017
          -0.0003745693        0.0952515669       -0.0012196785
           0.0228654020        0.1274001169       -0.4353991453
          -0.0196527363        0.1226713882        0.4400030966
           0.0047400021       -0.2409195382       -0.0028170126
          -0.0047400021        0.2409195382       -0.0028170126
          -0.0228654020       -0.1274001169       -0.4353991453
           0.0196527363       -0.1226713882        0.4400030966
vibration 16
          -0.0217958347       -0.0018915511        0.2454414074
          -0.0340611542        0.0017776611       -0.2362851783
           0.0340611542       -0.0017776611       -0.2362851783
           0.0217958347        0.0018915511        0.2454414074
          -0.3412595106       -0.0611150460        0.1105724219
          -0.3430149044        0.0594771358        0.1134677358
           0.0697282338       -0.0016222901       -0.3330618090
          -0.0697282338        0.0016222901       -0.3330618090
           0.3412595106        0.0611150460        0.1105724219
           0.3430149044       -0.0594771358        0.1134677358
vibration 17
           0.0269012493        0.0002902249       -0.0058110691
           0.0498674023       -0.0009795195        0.0436714017
          -0.0498674023        0.0009795195        0.0436714017
          -0.0269012493       -0.0002902249       -0.0058110691
          -0.0102575127       -0.0038441423       -0.0342708698
          -0.0107431862        0.0034781807       -0.0372145993
           0.5900231229        0.0060410892       -0.3793110259
          -0.5900231229       -0.0060410892       -0.3793110259
           0.0102575127        0.0038441423       -0.0342708698
           0.0107431862       -0.0034781807       -0.0372145993
vibration 18
           0.0101555585        0.0002634520       -0.0323309152
          -0.0733666703       -0.0005855325        0.1365856634
          -0.0733666703       -0.0005855325       -0.1365856634
           0.0101555585        0.0002634520        0.0323309152
           0.1041443394        0.0654759514       -0.1074282127
           0.1046932100       -0.0639930165       -0.1086672827
           0.5438063288        0.0023520219       -0.3543214361
           0.5438063288        0.0023520219        0.3543214361
           0.1041443394        0.0654759514        0.1074282127
           0.1046932100       -0.0639930165        0.1086672827
vibration 19
           0.0350393873        0.0006114403       -0.0755685691
          -0.0065259235       -0.0001589566        0.0333311791
          -0.0065259235       -0.0001589566       -0.0333311791
           0.0350393873        0.0006114403        0.0755685691
          -0.2125720879       -0.2904334533        0.3355144681
          -0.2137019727        0.2847004996        0.3376011229
           0.0867691321        0.0003453086       -0.0396586609
           0.0867691321        0.0003453086        0.0396586609
          -0.2125720879       -0.2904334533       -0.3355144681
          -0.2137019727        0.2847004996       -0.3376011229
vibration 20
           0.0309327861        0.0006573439       -0.0733630123
          -0.0176603586       -0.0001186219        0.0161225534
           0.0176603586        0.0001186219        0.0161225534
          -0.0309327861       -0.0006573439       -0.0733630123
          -0.2168056987       -0.2908230849        0.3402794174
          -0.2177481406        0.2850204565        0.3420603747
           0.0076852533        0.0000623947       -0.0007874543
          -0.0076852533       -0.0000623947       -0.0007874543
           0.2168056987        0.2908230849        0.3402794174
           0.2177481406       -0.2850204565        0.3420603747
vibration 21
          -0.0161569490       -0.0000967241        0.0202082176
           0.4702113417        0.0004639476       -0.0811950783
          -0.4702113417       -0.0004639476       -0.0811950783
           0.0161569490        0.0000967241        0.0202082176
          -0.0372514689       -0.0640391586        0.1268306119
          -0.0373862660        0.0619899506        0.1266900658
          -0.0733838639       -0.0004923680        0.4726394252
           0.0733838639        0.0004923680        0.4726394252
           0.0372514689        0.0640391586        0.1268306119
           0.0373862660       -0.0619899506        0.1266900658
vibration 22
           0.0256428656        0.0000972164       -0.0300698357
          -0.0162409232        0.0000356929       -0.0184971828
          -0.0162409232        0.0000356929        0.0184971828
           0.0256428656        0.0000972164        0.0300698357
          -0.1550872921        0.3830036866        0.1750441185
          -0.1528220376       -0.3841691760        0.1693185953
           0.1959620123       -0.0004170388        0.2417382613
           0.1959620123       -0.0004170388       -0.2417382613
          -0.1550872921        0.3830036866       -0.1750441185
          -0.1528220376       -0.3841691760       -0.1693185953
vibration 23
           0.0276816145        0.0001513396       -0.0331896843
          -0.0050355598        0.0000254729       -0.0048406551
           0.0050355598       -0.0000254729       -0.0048406551
          -0.0276816145       -0.0001513396       -0.0331896843
          -0.1707529947        0.4225999640        0.1940597851
          -0.1689775752       -0.4246679308        0.1882192336
           0.0581198396       -0.0002094345        0.0705417175
          -0.0581198396        0.0002094345        0.0705417175
           0.1707529947       -0.4225999640        0.1940597851
           0.1689775752        0.4246679308        0.1882192336
vibration 24
          -0.0134216356       -0.0000423860        0.0163436834
          -0.0318986371        0.0000795215       -0.0411279472
          -0.0318986371        0.0000795215        0.0411279472
          -0.0134216356       -0.0000423860       -0.0163436834
           0.0752370109       -0.1924589789       -0.0893066848
           0.0741332021        0.1929330845       -0.0863727191
           0.3902505090       -0.0009162716        0.4936511942
           0.3902505090       -0.0009162716       -0.4936511942
           0.0752370109       -0.1924589789        0.0893066848
           0.0741332021        0.1929330845        0.0863727191
vibration 25
          -0.0051219542       -0.0002010305        0.0052946504
          -0.0481299421        0.0000815599       -0.0462590091
           0.0481299421       -0.0000815599       -0.0462590091
           0.0051219542        0.0002010305        0.0052946504
           0.0241133089       -0.0539050915       -0.0272554354
           0.0249177515        0.0563321659       -0.0276949711
           0.4383688941       -0.0009548701        0.5427060078
          -0.4383688941        0.0009548701        0.5427060078
          -0.0241133089        0.0539050915       -0.0272554354
          -0.0249177515       -0.0563321659       -0.0276949711
vibration 26
           0.0000563813       -0.0695973154       -0.0003715712
          -0.0000036147       -0.0001957608       -0.0000024961
          -0.0000036147       -0.0001957608        0.0000024961
           0.0000563813       -0.0695973154        0.0003715712
          -0.1861003319        0.4134308101        0.2020236699
           0.1854328251        0.4187505858       -0.1975989575
           0.0000392234       -0.0011671944        0.0000705875
           0.0000392234       -0.0011671944       -0.0000705875
          -0.1861003319        0.4134308101       -0.2020236699
           0.1854328251        0.4187505858        0.1975989575
vibration 27
           0.0001148493       -0.0710976582       -0.0004165144
           0.0001202271       -0.0001613622        0.0001197941
          -0.0001202271        0.0001613622        0.0001197941
          -0.0001148493        0.0710976582       -0.0004165144
          -0.1793009188        0.4156406327        0.2052537461
           0.1780609117        0.4196266749       -0.2002818296
          -0.0011890669       -0.0011383828       -0.0014389188
           0.0011890669        0.0011383828       -0.0014389188
           0.1793009188       -0.4156406327        0.2052537461
          -0.1780609117       -0.4196266749       -0.2002818296
