[Molden Format]

[FREQ]
        -247.3860199512
        -193.7402889725
        -163.3235449509
         -38.8202445591
         463.2074969198
         604.9375788312
         708.9543470289
         843.2534045707
         896.6134805971
         956.9928786119
         981.3065922294
         989.8231908991
        1008.3925836808
        1074.7690874097
        1099.7062400383
        1240.5926890349
        1341.7221364999
        1458.7636168231
        1510.3688762577
        1632.6497476039
        1674.2054217691
        3090.5027036327
        3091.2350449453
        3209.9761570537
        3224.0805932344
        3274.9252889084
        3276.7232254899

[FR-COORD]
C          2.0548758314        0.5808499868       -1.1330250011
C          1.3493013829        0.0000000000        1.2505460681
C         -1.3493013829       -0.0000000000        1.2505460681
C         -2.0548758314       -0.5808499868       -1.1330250011
H          3.9891641879        0.2177594525       -1.7878125472
H          0.9940701482        1.8422731632       -2.3367873037
H          2.6193978484       -0.6564330119        2.7252966406
H         -2.6193978484        0.6564330119        2.7252966406
H         -3.9891641879       -0.2177594525       -1.7878125472
H         -0.9940701482       -1.8422731632       -2.3367873037

[FR-NORM-COORD]
vibration 1
           0.2137287998        0.0196868143        0.0594386535
           0.0233886691       -0.0291509778       -0.0683122040
          -0.0233886691        0.0291509778       -0.0683122040
          -0.2137287998       -0.0196868143        0.0594386535
           0.3339948164        0.2550239675        0.3126684820
           0.0849444318       -0.3376283072       -0.1945716781
          -0.0679076769       -0.0784344954       -0.0124409579
           0.0679076769        0.0784344954       -0.0124409579
          -0.3339948164       -0.2550239675        0.3126684820
          -0.0849444318        0.3376283072       -0.1945716781
vibration 2
          -0.0437493950        0.2727109053        0.0128543893
           0.0038332577        0.1423420080       -0.0135214598
          -0.0038332577       -0.1423420080       -0.0135214598
           0.0437493950       -0.2727109053        0.0128543893
           0.0116077639        0.5234488969        0.0383646942
          -0.2157346710        0.0997573883       -0.0141587836
           0.0660899189        0.2572150524       -0.0162632165
          -0.0660899189       -0.2572150524       -0.0162632165
          -0.0116077639       -0.5234488969        0.0383646942
           0.2157346710       -0.0997573883       -0.0141587836
vibration 3
           0.1049872538        0.0565922209        0.2303373118
          -0.1153201162       -0.0617721446        0.1298966728
          -0.1153201162       -0.0617721446       -0.1298966728
           0.1049872538        0.0565922209       -0.2303373118
           0.1618008758        0.0858311203        0.3812679129
           0.2122522557        0.1088665603        0.1902146997
          -0.2510215095       -0.1330212165        0.2145443985
          -0.2510215095       -0.1330212165       -0.2145443985
           0.1618008758        0.0858311203       -0.3812679129
           0.2122522557        0.1088665603       -0.1902146997
vibration 4
           0.0467607355       -0.1574671171        0.0041771922
          -0.0515227875        0.1737776233        0.0558291282
          -0.0515227875        0.1737776233       -0.0558291282
           0.0467607355       -0.1574671171       -0.0041771922
           0.0730651648       -0.2488192185        0.1325170638
           0.0964096540       -0.3220985230       -0.2120923081
          -0.1127738816        0.3767113384        0.1989091206
          -0.1127738816        0.3767113384       -0.1989091206
           0.0730651648       -0.2488192185       -0.1325170638
           0.0964096540       -0.3220985230        0.2120923081
vibration 5
           0.0176151350       -0.0988841522       -0.0350611788
          -0.0108659460        0.1791084705        0.0351581662
           0.0108659460       -0.1791084705        0.0351581662
          -0.0176151350        0.0988841522       -0.0350611788
           0.0503082989       -0.1331748313        0.0828130960
           0.0541270358       -0.2543522267       -0.2290238114
           0.0463246921        0.5337227524        0.1450559035
          -0.0463246921       -0.5337227524        0.1450559035
          -0.0503082989        0.1331748313        0.0828130960
          -0.0541270358        0.2543522267       -0.2290238114
vibration 6
          -0.0043158823        0.0154138443        0.0009067728
          -0.0011926244       -0.0641284033       -0.0170309498
          -0.0011926244       -0.0641284033        0.0170309498
          -0.0043158823        0.0154138443       -0.0009067728
           0.1243320465        0.4157564873        0.1476799670
          -0.1624502150       -0.2413907661       -0.1218105124
           0.1037070140        0.4056701866        0.1019653330
           0.1037070140        0.4056701866       -0.1019653330
           0.1243320465        0.4157564873       -0.1476799670
          -0.1624502150       -0.2413907661        0.1218105124
vibration 7
          -0.1008348059       -0.0356624127        0.0785090389
           0.1388070834        0.0183799659        0.1651614564
           0.1388070834        0.0183799659       -0.1651614564
          -0.1008348059       -0.0356624127       -0.0785090389
          -0.2088338581        0.0583931746       -0.2909093529
          -0.3101047486        0.0145209751        0.3342235931
           0.0668092042        0.1328649839        0.2714146945
           0.0668092042        0.1328649839       -0.2714146945
          -0.2088338581        0.0583931746        0.2909093529
          -0.3101047486        0.0145209751       -0.3342235931
vibration 8
           0.0500454877        0.0375022884        0.0060876368
           0.0188240224        0.1402820550        0.0182503995
          -0.0188240224       -0.1402820550        0.0182503995
          -0.0500454877       -0.0375022884        0.0060876368
          -0.0255437793       -0.3484145407       -0.0136964121
           0.1891222335        0.1305413986       -0.0328557360
           0.0052864297       -0.4902784101       -0.2432366804
          -0.0052864297        0.4902784101       -0.2432366804
           0.0255437793        0.3484145407       -0.0136964121
          -0.1891222335       -0.1305413986       -0.0328557360
vibration 9
           0.0581462855        0.0241780745       -0.0159044321
          -0.0520084530       -0.0106915543       -0.0212261830
           0.0520084530        0.0106915543       -0.0212261830
          -0.0581462855       -0.0241780745       -0.0159044321
           0.0747935938       -0.1075191688        0.0931820711
           0.3367251212        0.4619344051        0.1835133113
          -0.1322721058        0.2477354408        0.1654124913
           0.1322721058       -0.2477354408        0.1654124913
          -0.0747935938        0.1075191688        0.0931820711
          -0.3367251212       -0.4619344051        0.1835133113
vibration 10
          -0.0176322723       -0.0763278337       -0.0538406715
          -0.0093555533        0.0010023966       -0.0132428179
          -0.0093555533        0.0010023966        0.0132428179
          -0.0176322723       -0.0763278337        0.0538406715
           0.0939202623        0.2118889050        0.1035063980
           0.2474653646        0.4833991344        0.2878094963
          -0.0200462105        0.2015990358        0.0864684189
          -0.0200462105        0.2015990358       -0.0864684189
           0.0939202623        0.2118889050       -0.1035063980
           0.2474653646        0.4833991344       -0.2878094963
vibration 11
          -0.0747180349       -0.0852420813       -0.0283648342
          -0.0108901222        0.0381830840        0.0033869943
           0.0108901222       -0.0381830840        0.0033869943
           0.0747180349        0.0852420813       -0.0283648342
           0.1721352218        0.4220148002        0.4009390575
           0.1552041494        0.1768412817        0.0430101426
           0.0438868168       -0.1888584693       -0.1465423395
          -0.0438868168        0.1888584693       -0.1465423395
          -0.1721352218       -0.4220148002        0.4009390575
          -0.1552041494       -0.1768412817        0.0430101426
vibration 12
           0.0340663817        0.0560370095        0.0052471059
          -0.0282969953       -0.0674935439       -0.0260398221
          -0.0282969953       -0.0674935439        0.0260398221
           0.0340663817        0.0560370095       -0.0052471059
          -0.1362199219       -0.4188425711       -0.2310105214
           0.0545059096        0.1096778603        0.0349861715
           0.0130189167        0.4455757035        0.1653948176
           0.0130189167        0.4455757035       -0.1653948176
          -0.1362199219       -0.4188425711        0.2310105214
           0.0545059096        0.1096778603       -0.0349861715
vibration 13
          -0.0760784561        0.0623921512        0.0320909165
          -0.0422639220       -0.0579292167       -0.0208662815
           0.0422639220        0.0579292167       -0.0208662815
           0.0760784561       -0.0623921512        0.0320909165
          -0.0212758512       -0.3073848311        0.3798258416
           0.1930782027       -0.0860667782       -0.3649759976
           0.1838119792        0.1037935872       -0.1484996501
          -0.1838119792       -0.1037935872       -0.1484996501
           0.0212758512        0.3073848311        0.3798258416
          -0.1930782027        0.0860667782       -0.3649759976
vibration 14
          -0.0967875900        0.0147703963        0.0429220636
           0.0479252706       -0.0108355226        0.0263128202
           0.0479252706       -0.0108355226       -0.0263128202
          -0.0967875900        0.0147703963       -0.0429220636
          -0.0128990739       -0.2298855154        0.3998000672
           0.2421797590        0.0750493888       -0.1949066843
           0.3525145811        0.1079842593       -0.1855048987
           0.3525145811        0.1079842593        0.1855048987
          -0.0128990739       -0.2298855154       -0.3998000672
           0.2421797590        0.0750493888        0.1949066843
vibration 15
           0.0451224092       -0.0077929781       -0.0124616948
           0.1120734694       -0.0267537408        0.0302783011
          -0.1120734694        0.0267537408        0.0302783011
          -0.0451224092        0.0077929781       -0.0124616948
           0.0353583286        0.0167755475       -0.0677069088
           0.0844348404        0.1449545609        0.1094809667
           0.5756813316        0.2035459648       -0.2539133374
          -0.5756813316       -0.2035459648       -0.2539133374
          -0.0353583286       -0.0167755475       -0.0677069088
          -0.0844348404       -0.1449545609        0.1094809667
vibration 16
           0.0445075852       -0.0413962240        0.0691882383
          -0.0616574055        0.0325851439       -0.0318476553
          -0.0616574055        0.0325851439        0.0318476553
           0.0445075852       -0.0413962240       -0.0691882383
          -0.0175009771        0.0217592468       -0.1143820115
          -0.1843038392       -0.0160149388        0.3107327873
           0.4060047888        0.0991677130       -0.4078288230
           0.4060047888        0.0991677130        0.4078288230
          -0.0175009771        0.0217592468        0.1143820115
          -0.1843038392       -0.0160149388       -0.3107327873
vibration 17
          -0.0184249716        0.0413477416       -0.0939686248
           0.1400034745       -0.0371062013        0.0995354753
          -0.1400034745        0.0371062013        0.0995354753
           0.0184249716       -0.0413477416       -0.0939686248
           0.0362948216        0.0912054080       -0.0363600960
           0.2981855941        0.0385549032       -0.4075798661
          -0.1840777480       -0.1193581215        0.3776564264
           0.1840777480        0.1193581215        0.3776564264
          -0.0362948216       -0.0912054080       -0.0363600960
          -0.2981855941       -0.0385549032       -0.4075798661
vibration 18
          -0.0107486355        0.0037600733        0.0184373851
           0.0515029439        0.0174074582       -0.1004817824
           0.0515029439        0.0174074582        0.1004817824
          -0.0107486355        0.0037600733       -0.0184373851
           0.0549366873       -0.2280841307        0.4097155624
          -0.3396902740       -0.0348370815        0.3105303945
          -0.2005009813        0.0108830401        0.1010923500
          -0.2005009813        0.0108830401       -0.1010923500
           0.0549366873       -0.2280841307       -0.4097155624
          -0.3396902740       -0.0348370815       -0.3105303945
vibration 19
          -0.0328989716        0.0030961874        0.0008876717
           0.1437711752        0.0178890673       -0.0750249351
          -0.1437711752       -0.0178890673       -0.0750249351
           0.0328989716       -0.0030961874        0.0008876717
           0.0371414992       -0.2832746530        0.4166374788
          -0.2864074710        0.0231811094        0.2859751170
          -0.1392716378        0.0297797319        0.1801270991
           0.1392716378       -0.0297797319        0.1801270991
          -0.0371414992        0.2832746530        0.4166374788
           0.2864074710       -0.0231811094        0.2859751170
vibration 20
          -0.0681774676       -0.0488704126        0.1842126265
           0.1004244028        0.0378891168       -0.1468093087
          -0.1004244028       -0.0378891168       -0.1468093087
           0.0681774676        0.0488704126        0.1842126265
          -0.2082010201        0.1748884854       -0.3276090641
           0.4443256444        0.0584187724       -0.1488735792
          -0.1156412217        0.0857383018        0.0311277462
           0.1156412217       -0.0857383018        0.0311277462
           0.2082010201       -0.1748884854       -0.3276090641
          -0.4443256444       -0.0584187724       -0.1488735792
vibration 21
          -0.0614679439       -0.0508831948        0.1933262410
           0.0655185603        0.0315032230       -0.1840675000
           0.0655185603        0.0315032230        0.1840675000
          -0.0614679439       -0.0508831948       -0.1933262410
          -0.1947495564        0.2268178500       -0.3056483079
           0.3822236317       -0.0424497462       -0.1640860540
          -0.2357040701        0.0463858997        0.0420450190
          -0.2357040701        0.0463858997       -0.0420450190
          -0.1947495564        0.2268178500        0.3056483079
           0.3822236317       -0.0424497462        0.1640860540
vibration 22
          -0.0476112663        0.0026678272        0.0277156016
           0.0043254961       -0.0002830493       -0.0005170327
           0.0043254961       -0.0002830493        0.0005170327
          -0.0476112663        0.0026678272       -0.0277156016
           0.6425185186       -0.1255964463       -0.2157902559
          -0.0811313805        0.0776802968       -0.0659137669
          -0.0459908887        0.0195210084       -0.0480781004
          -0.0459908887        0.0195210084        0.0480781004
           0.6425185186       -0.1255964463        0.2157902559
          -0.0811313805        0.0776802968        0.0659137669
vibration 23
          -0.0467107151        0.0017865043        0.0281894990
           0.0038152471       -0.0006903882       -0.0005024001
          -0.0038152471        0.0006903882       -0.0005024001
           0.0467107151       -0.0017865043        0.0281894990
           0.6422252063       -0.1235670346       -0.2139789212
          -0.0882378183        0.0810187794       -0.0723032367
          -0.0393969283        0.0220006530       -0.0433833860
           0.0393969283       -0.0220006530       -0.0433833860
          -0.6422252063        0.1235670346       -0.2139789212
           0.0882378183       -0.0810187794       -0.0723032367
vibration 24
          -0.0031119643       -0.0031755958        0.0086084452
          -0.0344511483        0.0197101307       -0.0461374273
          -0.0344511483        0.0197101307        0.0461374273
          -0.0031119643       -0.0031755958       -0.0086084452
           0.0504910105       -0.0104948743       -0.0186041393
          -0.0330348655        0.0363556962       -0.0331320396
           0.4298014017       -0.2227346963        0.5053174581
           0.4298014017       -0.2227346963       -0.5053174581
           0.0504910105       -0.0104948743        0.0186041393
          -0.0330348655        0.0363556962        0.0331320396
vibration 25
          -0.0062150270       -0.0004198790        0.0059849925
          -0.0399807559        0.0194263424       -0.0467239126
           0.0399807559       -0.0194263424       -0.0467239126
           0.0062150270        0.0004198790        0.0059849925
           0.0544426286       -0.0082464127       -0.0216100656
          -0.0015632526       -0.0042988353        0.0038605679
           0.4355169866       -0.2229971755        0.5028208406
          -0.4355169866        0.2229971755        0.5028208406
          -0.0544426286        0.0082464127       -0.0216100656
           0.0015632526        0.0042988353        0.0038605679
vibration 26
           0.0383969658       -0.0381066058        0.0339069959
           0.0047624764       -0.0004618390        0.0007890130
           0.0047624764       -0.0004618390       -0.0007890130
           0.0383969658       -0.0381066058       -0.0339069959
          -0.1084051551        0.0203428078        0.0432903766
          -0.3726240046        0.4226450699       -0.4022479630
          -0.0328629246        0.0162399868       -0.0351590300
          -0.0328629246        0.0162399868        0.0351590300
          -0.1084051551        0.0203428078       -0.0432903766
          -0.3726240046        0.4226450699        0.4022479630
vibration 27
           0.0387119481       -0.0387355903        0.0326602570
           0.0007781146        0.0005335541       -0.0035489792
          -0.0007781146       -0.0005335541       -0.0035489792
          -0.0387119481        0.0387355903        0.0326602570
          -0.1122612105        0.0199898246        0.0452790596
          -0.3736296946        0.4239307240       -0.4017374397
           0.0077391553       -0.0015454854        0.0098353819
          -0.0077391553        0.0015454854        0.0098353819
           0.1122612105       -0.0199898246        0.0452790596
           0.3736296946       -0.4239307240       -0.4017374397
