
    -----------------------------------------------------------------------
          Psi4: An Open-Source Ab Initio Electronic Structure Package
                               Psi4 1.9.1 release

                         Git: Rev {} zzzzzzz 


    D. G. A. Smith, L. A. Burns, A. C. Simmonett, R. M. Parrish,
    M. C. Schieber, R. Galvelis, P. Kraus, H. Kruse, R. Di Remigio,
    A. Alenaizan, A. M. James, S. Lehtola, J. P. Misiewicz, M. Scheurer,
    R. A. Shaw, J. B. Schriber, Y. Xie, Z. L. Glick, D. A. Sirianni,
    J. S. O'Brien, J. M. Waldrop, A. Kumar, E. G. Hohenstein,
    B. P. Pritchard, B. R. Brooks, H. F. Schaefer III, A. Yu. Sokolov,
    K. Patkowski, A. E. DePrince III, U. Bozkaya, R. A. King,
    F. A. Evangelista, J. M. Turney, T. D. Crawford, C. D. Sherrill,
    J. Chem. Phys. 152(18) 184108 (2020). https://doi.org/10.1063/5.0006002

                            Additional Code Authors
    E. T. Seidl, C. L. Janssen, E. F. Valeev, M. L. Leininger,
    J. F. Gonthier, R. M. Richard, H. R. McAlexander, M. Saitow, X. Wang,
    P. Verma, M. H. Lechner, A. Jiang, S. Behnle, A. G. Heide,
    M. F. Herbst, and D. L. Poole

             Previous Authors, Complete List of Code Contributors,
                       and Citations for Specific Modules
    https://github.com/psi4/psi4/blob/master/codemeta.json
    https://github.com/psi4/psi4/graphs/contributors
    http://psicode.org/psi4manual/master/introduction.html#citing-psifour

    -----------------------------------------------------------------------


    Psi4 started on: Thursday, 30 May 2024 08:41PM

    Process ID: 56818
    Host:       Barrys-MacBook-Pro.local
    PSIDATADIR: /Users/blink/psi4conda/share/psi4
    Memory:     3.7 GiB
    Threads:    4
      Threads set to 4 by Python driver.

Scratch directory: /tmp/
gradient() will perform analytic gradient computation.
   => Libint2 <=

    Primary   basis highest AM E, G, H:  5, 4, 3
    Auxiliary basis highest AM E, G, H:  6, 5, 4
    Onebody   basis highest AM E, G, H:  6, 5, 4
    Solid Harmonics ordering:            Gaussian

*** tstart() called on Barrys-MacBook-Pro.local
*** at Thu May 30 21:09:05 2024

   => Loading Basis Set <=

    Name: 6-31+G(D)
    Role: ORBITAL
    Keyword: BASIS
    atoms 1, 4 entry H          line    46 file /Users/blink/psi4conda/share/psi4/basis/6-31pg_d_.gbs 
    atoms 2-3  entry O          line   157 file /Users/blink/psi4conda/share/psi4/basis/6-31pg_d_.gbs 


         ---------------------------------------------------------
                                   SCF
               by Justin Turney, Rob Parrish, Andy Simmonett
                          and Daniel G. A. Smith
                              RKS Reference
                        4 Threads,   3814 MiB Core
         ---------------------------------------------------------

  ==> Geometry <==

    Molecular point group: c2
    Full point group: C2

    Geometry (in Angstrom), charge = 0, multiplicity = 1:

       Center              X                  Y                   Z               Mass       
    ------------   -----------------  -----------------  -----------------  -----------------
         H           -0.000000025780     0.985142828965    -0.866594789063     1.007825032230
         O            0.000000035031     0.725614550860     0.070195396745    15.994914619570
         O           -0.000000035031    -0.725614550860     0.070195396745    15.994914619570
         H            0.000000025780    -0.985142828965    -0.866594789063     1.007825032230

  Running in c2 symmetry.

  Rotational constants: A =     10.08622  B =      0.89671  C =      0.82350 [cm^-1]
  Rotational constants: A = 302377.26649  B =  26882.75810  C =  24687.88891 [MHz]
  Nuclear repulsion =   36.656602370276097

  Charge       = 0
  Multiplicity = 1
  Electrons    = 18
  Nalpha       = 9
  Nbeta        = 9

  ==> Algorithm <==

  SCF Algorithm Type is DF.
  DIIS enabled.
  MOM disabled.
  Fractional occupation disabled.
  Guess Type is SAD.
  Energy threshold   = 1.00e-08
  Density threshold  = 1.00e-08
  Integral threshold = 1.00e-12

  ==> Primary Basis <==

  Basis Set: 6-31+G(D)
    Blend: 6-31+G(D)
    Number of shells: 20
    Number of basis functions: 42
    Number of Cartesian functions: 42
    Spherical Harmonics?: false
    Max angular momentum: 2

  ==> DFT Potential <==

   => LibXC <=

    Version 6.2.2
    S. Lehtola, C. Steigemann, M. J.T. Oliveira, and M. A.L. Marques.,  SoftwareX 7, 1–5 (2018) (10.1016/j.softx.2017.11.002)

   => Composite Functional: B3PW91 <= 

    B3PW91 Hyb-GGA Exchange-Correlation Functional

    A. D. Becke.,  J. Chem. Phys. 98, 5648 (1993) (10.1063/1.464913)

    Deriv               =              1
    GGA                 =           TRUE
    Meta                =          FALSE

    Exchange Hybrid     =           TRUE
    MP2 Hybrid          =          FALSE

   => Exchange Functionals <=

    0.0800   Slater exchange
    0.7200         Becke 88

   => Exact (HF) Exchange <=

    0.2000               HF 

   => Correlation Functionals <=

    0.1900    Perdew & Wang
    0.8100   Perdew & Wang 91

   => LibXC Density Thresholds  <==

    XC_HYB_GGA_XC_B3PW91:  1.00E-15 

   => Molecular Quadrature <=

    Radial Scheme          =       TREUTLER
    Pruning Scheme         =           NONE
    Nuclear Scheme         =       TREUTLER

    Blocking Scheme        =         OCTREE
    BS radius alpha        =              1
    Pruning alpha          =              1
    Radial Points          =             75
    Spherical Points       =            302
    Total Points           =          88328
    Total Blocks           =            690
    Max Points             =            252
    Max Functions          =             42
    Weights Tolerance      =       1.00E-15

   => Loading Basis Set <=

    Name: (6-31+G(D) AUX)
    Role: JKFIT
    Keyword: DF_BASIS_SCF
    atoms 1, 4 entry H          line   116 file /Users/blink/psi4conda/share/psi4/basis/heavy-aug-cc-pvdz-jkfit.gbs 
    atoms 2-3  entry O          line   310 file /Users/blink/psi4conda/share/psi4/basis/heavy-aug-cc-pvdz-jkfit.gbs 

  ==> Integral Setup <==

  DFHelper Memory: AOs need 0.004 GiB; user supplied 2.691 GiB. 
  Using in-core AOs.

  ==> MemDFJK: Density-Fitted J/K Matrices <==

    J tasked:                   Yes
    K tasked:                   Yes
    wK tasked:                   No
    OpenMP threads:               4
    Memory [MiB]:              2755
    Algorithm:                 Core
    Schwarz Cutoff:           1E-12
    Mask sparsity (%):       0.0000
    Fitting Condition:        1E-10

   => Auxiliary Basis Set <=

  Basis Set: (6-31+G(D) AUX)
    Blend: HEAVY-AUG-CC-PVDZ-JKFIT
    Number of shells: 74
    Number of basis functions: 252
    Number of Cartesian functions: 252
    Spherical Harmonics?: false
    Max angular momentum: 3

  Cached 100.0% of DFT collocation blocks in 0.103 [GiB].

  Minimum eigenvalue in the overlap matrix is 3.1905722673E-03.
  Reciprocal condition number of the overlap matrix is 5.4607381269E-04.
    Using symmetric orthogonalization.

  ==> Pre-Iterations <==

  SCF Guess: Superposition of Atomic Densities via on-the-fly atomic UHF (no occupation information).

   -------------------------
    Irrep   Nso     Nmo    
   -------------------------
     A         21      21 
     B         21      21 
   -------------------------
    Total      42      42
   -------------------------

  ==> Iterations <==

                           Total Energy        Delta E     RMS |[F,P]|

   @DF-RKS iter SAD:  -151.05122441520086   -1.51051e+02   0.00000e+00 
   @DF-RKS iter   1:  -151.36332036018496   -3.12096e-01   1.74473e-02 DIIS/ADIIS
   @DF-RKS iter   2:  -151.28537214224554    7.79482e-02   2.34241e-02 DIIS/ADIIS
   @DF-RKS iter   3:  -151.47229029308818   -1.86918e-01   1.23561e-03 DIIS/ADIIS
   @DF-RKS iter   4:  -151.47277970745060   -4.89414e-04   1.46952e-04 DIIS/ADIIS
   @DF-RKS iter   5:  -151.47278691623652   -7.20879e-06   2.18701e-05 DIIS
   @DF-RKS iter   6:  -151.47278706599681   -1.49760e-07   4.10874e-06 DIIS
   @DF-RKS iter   7:  -151.47278707220505   -6.20824e-09   1.65977e-07 DIIS
   @DF-RKS iter   8:  -151.47278707221867   -1.36140e-11   1.09880e-08 DIIS
   @DF-RKS iter   9:  -151.47278707221881   -1.42109e-13   1.67038e-09 DIIS
  Energy and wave function converged.


  ==> Post-Iterations <==

   Electrons on quadrature grid:
      Ntotal   =   17.9999929341 ; deviation = -7.066e-06 

    Orbital Energies [Eh]
    ---------------------

    Doubly Occupied:                                                      

       1A    -19.216989     1B    -19.216917     2A     -1.139528  
       2B     -0.921243     3A     -0.593999     4A     -0.445463  
       3B     -0.414567     4B     -0.401306     5A     -0.267995  

    Virtual:                                                              

       5B     -0.011746     6A      0.022159     6B      0.123097  
       7A      0.155095     7B      0.164633     8B      0.193857  
       8A      0.199549     9A      0.221661    10A      0.236246  
       9B      0.277148    10B      0.367263    11A      0.937877  
      11B      1.015789    12A      1.036535    12B      1.047349  
      13B      1.078103    13A      1.142702    14A      1.169284  
      15A      1.262932    14B      1.283101    15B      1.498761  
      16A      1.538570    16B      1.613544    17B      1.617518  
      17A      1.821141    18A      1.920873    18B      2.262086  
      19A      2.335177    20A      2.341026    19B      2.603464  
      20B      3.052955    21A      3.622790    21B      4.037116  

    Final Occupation by Irrep:
              A     B 
    DOCC [     5,    4 ]
    NA   [     5,    4 ]
    NB   [     5,    4 ]

  @DF-RKS Final Energy:  -151.47278707221881

   => Energetics <=

    Nuclear Repulsion Energy =             36.6566023702760972
    One-Electron Energy =                -280.7843574866124641
    Two-Electron Energy =                 106.9947083934813747
    DFT Exchange-Correlation Energy =     -14.3397403493638080
    Empirical Dispersion Energy =           0.0000000000000000
    VV10 Nonlocal Energy =                  0.0000000000000000
    Total Energy =                       -151.4727870722188072

Computation Completed


Properties will be evaluated at   0.000000,   0.000000,   0.000000 [a0]

Properties computed using the SCF density matrix


 Multipole Moments:

 ------------------------------------------------------------------------------------
     Multipole            Electronic (a.u.)      Nuclear  (a.u.)        Total (a.u.)
 ------------------------------------------------------------------------------------

 L = 1.  Multiply by 2.5417464519 to convert [e a0] to [Debye]
 Dipole X            :          0.0000000           -0.0000000           -0.0000000
 Dipole Y            :          0.0000000           -0.0000000           -0.0000000
 Dipole Z            :         -0.2407516           -1.1528524           -1.3936040
 Magnitude           :                                                    1.3936040

 ------------------------------------------------------------------------------------

*** tstop() called on Barrys-MacBook-Pro.local at Thu May 30 21:09:06 2024
Module time:
	user time   =       3.20 seconds =       0.05 minutes
	system time =       0.15 seconds =       0.00 minutes
	total time  =          1 seconds =       0.02 minutes
Total time:
	user time   =     986.17 seconds =      16.44 minutes
	system time =      43.61 seconds =       0.73 minutes
	total time  =       1375 seconds =      22.92 minutes

*** tstart() called on Barrys-MacBook-Pro.local
*** at Thu May 30 21:09:06 2024


         ------------------------------------------------------------
                                   SCF GRAD                          
                          Rob Parrish, Justin Turney,                
                       Andy Simmonett, and Alex Sokolov              
         ------------------------------------------------------------

  ==> Geometry <==

    Molecular point group: c2
    Full point group: C2

    Geometry (in Angstrom), charge = 0, multiplicity = 1:

       Center              X                  Y                   Z               Mass       
    ------------   -----------------  -----------------  -----------------  -----------------
         H           -0.000000025780     0.985142828965    -0.866594789063     1.007825032230
         O            0.000000035031     0.725614550860     0.070195396745    15.994914619570
         O           -0.000000035031    -0.725614550860     0.070195396745    15.994914619570
         H            0.000000025780    -0.985142828965    -0.866594789063     1.007825032230

  Nuclear repulsion =   36.656602370276097

  ==> Basis Set <==

  Basis Set: 6-31+G(D)
    Blend: 6-31+G(D)
    Number of shells: 20
    Number of basis functions: 42
    Number of Cartesian functions: 42
    Spherical Harmonics?: false
    Max angular momentum: 2

  ==> DFJKGrad: Density-Fitted SCF Gradients <==

    Gradient:                    1
    J tasked:                  Yes
    K tasked:                  Yes
    wK tasked:                  No
    OpenMP threads:              4
    Integrals threads:           4
    Memory [MiB]:             2861
    Schwarz Cutoff:          1E-12
    Fitting Condition:       1E-10

   => Auxiliary Basis Set <=

  Basis Set: (6-31+G(D) AUX)
    Blend: HEAVY-AUG-CC-PVDZ-JKFIT
    Number of shells: 74
    Number of basis functions: 252
    Number of Cartesian functions: 252
    Spherical Harmonics?: false
    Max angular momentum: 3

  ==> DFT Potential <==

   => LibXC <=

    Version 6.2.2
    S. Lehtola, C. Steigemann, M. J.T. Oliveira, and M. A.L. Marques.,  SoftwareX 7, 1–5 (2018) (10.1016/j.softx.2017.11.002)

   => Composite Functional: B3PW91 <= 

    B3PW91 Hyb-GGA Exchange-Correlation Functional

    A. D. Becke.,  J. Chem. Phys. 98, 5648 (1993) (10.1063/1.464913)

    Deriv               =              1
    GGA                 =           TRUE
    Meta                =          FALSE

    Exchange Hybrid     =           TRUE
    MP2 Hybrid          =          FALSE

   => Exchange Functionals <=

    0.0800   Slater exchange
    0.7200         Becke 88

   => Exact (HF) Exchange <=

    0.2000               HF 

   => Correlation Functionals <=

    0.1900    Perdew & Wang
    0.8100   Perdew & Wang 91

   => LibXC Density Thresholds  <==

    XC_HYB_GGA_XC_B3PW91:  1.00E-15 

   => Molecular Quadrature <=

    Radial Scheme          =       TREUTLER
    Pruning Scheme         =           NONE
    Nuclear Scheme         =       TREUTLER

    Blocking Scheme        =         OCTREE
    BS radius alpha        =              1
    Pruning alpha          =              1
    Radial Points          =             75
    Spherical Points       =            302
    Total Points           =          88328
    Total Blocks           =            690
    Max Points             =            252
    Max Functions          =             42
    Weights Tolerance      =       1.00E-15


  -Total Gradient:
     Atom            X                  Y                   Z
    ------   -----------------  -----------------  -----------------
       1        0.000000001994    -0.000004762078    -0.000012197708
       2       -0.000000002709    -0.000096655814     0.000013793645
       3        0.000000002709     0.000096655814     0.000013793645
       4       -0.000000001994     0.000004762078    -0.000012197708


*** tstop() called on Barrys-MacBook-Pro.local at Thu May 30 21:09:06 2024
Module time:
	user time   =       0.66 seconds =       0.01 minutes
	system time =       0.03 seconds =       0.00 minutes
	total time  =          0 seconds =       0.00 minutes
Total time:
	user time   =     986.84 seconds =      16.45 minutes
	system time =      43.64 seconds =       0.73 minutes
	total time  =       1375 seconds =      22.92 minutes

         ----------------------------------------------------------
                                   FINDIF
                     R. A. King and Jonathon Misiewicz
         ----------------------------------------------------------

  Using finite-differences of gradients to determine vibrational frequencies and 
  normal modes. Resulting frequencies are only valid at stationary points.
    Generating geometries for use with 3-point formula.
    Displacement size will be 5.00e-03.
    Number of atoms is 4.
    Number of irreps is 2.
    Number of SALCs is 6.
    Translations projected? 1. Rotations projected? 1.
    Index of SALCs per irrep:
      1 :  0  1  2  3 
      2 :  4  5 
    Number of SALCs per irrep:
      Irrep 1: 4
      Irrep 2: 2
    Number of geometries (including reference) is 11.
    Number of displacements per irrep:
      Irrep 1: 8
      Irrep 2: 2
 11 displacements needed ...

  //>>>>>>>>>>>>>>>>>>>>>>>>>>>>>>>>>>>//
  //    FiniteDifference Computations  //
  //<<<<<<<<<<<<<<<<<<<<<<<<<<<<<<<<<<<//


    -----------------------------------------------------------------------
          Psi4: An Open-Source Ab Initio Electronic Structure Package
                               Psi4 1.9.1 release

                         Git: Rev {} zzzzzzz 


    D. G. A. Smith, L. A. Burns, A. C. Simmonett, R. M. Parrish,
    M. C. Schieber, R. Galvelis, P. Kraus, H. Kruse, R. Di Remigio,
    A. Alenaizan, A. M. James, S. Lehtola, J. P. Misiewicz, M. Scheurer,
    R. A. Shaw, J. B. Schriber, Y. Xie, Z. L. Glick, D. A. Sirianni,
    J. S. O'Brien, J. M. Waldrop, A. Kumar, E. G. Hohenstein,
    B. P. Pritchard, B. R. Brooks, H. F. Schaefer III, A. Yu. Sokolov,
    K. Patkowski, A. E. DePrince III, U. Bozkaya, R. A. King,
    F. A. Evangelista, J. M. Turney, T. D. Crawford, C. D. Sherrill,
    J. Chem. Phys. 152(18) 184108 (2020). https://doi.org/10.1063/5.0006002

                            Additional Code Authors
    E. T. Seidl, C. L. Janssen, E. F. Valeev, M. L. Leininger,
    J. F. Gonthier, R. M. Richard, H. R. McAlexander, M. Saitow, X. Wang,
    P. Verma, M. H. Lechner, A. Jiang, S. Behnle, A. G. Heide,
    M. F. Herbst, and D. L. Poole

             Previous Authors, Complete List of Code Contributors,
                       and Citations for Specific Modules
    https://github.com/psi4/psi4/blob/master/codemeta.json
    https://github.com/psi4/psi4/graphs/contributors
    http://psicode.org/psi4manual/master/introduction.html#citing-psifour

    -----------------------------------------------------------------------


    Psi4 started on: Thursday, 30 May 2024 08:41PM

    Process ID: 56818
    Host:       Barrys-MacBook-Pro.local
    PSIDATADIR: /Users/blink/psi4conda/share/psi4
    Memory:     3.7 GiB
    Threads:    4
    
  ==> Input QCSchema <==

--------------------------------------------------------------------------
{'driver': 'gradient',
 'extras': {'psiapi': True, 'wfn_qcvars_only': True},
 'id': None,
 'keywords': {'ENSURE_BT_CONVERGENCE': 1,
              'FULL_HESS_EVERY': 0,
              'GEOM_MAXITER': 500,
              'G_CONVERGENCE': 'GAU_VERYTIGHT',
              'IRC_DIRECTION': 'FORWARD',
              'IRC_POINTS': 100,
              'IRC_STEP_SIZE': 0.25,
              'NORMAL_MODES_WRITE': 1,
              'OPT_TYPE': 'IRC',
              'PARENT_SYMMETRY': 'C2(z)',
              'REFERENCE': 'RHF',
              'SCF__D_CONVERGENCE': 1e-08,
              'SCF__E_CONVERGENCE': 1e-08,
              'SCF__INTS_TOLERANCE': 1e-12,
              'function_kwargs': {}},
 'model': {'basis': '6-31+g(d)', 'method': 'b3pw91'},
 'molecule': {'atom_labels': ['', '', '', ''],
              'atomic_numbers': [1, 8, 8, 1],
              'extras': {},
              'fix_com': True,
              'fix_orientation': True,
              'fix_symmetry': 'c2',
              'fragment_charges': [0.0],
              'fragment_multiplicities': [1],
              'fragments': [[0, 1, 2, 3]],
              'geometry': [-4.871753492572071e-08, 1.8616501412023885, -1.6376268130782388, 6.619903487366585e-08,
                           1.3712127737715647, 0.13265007511626753, -6.619903487366585e-08, -1.3712127737715647,
                           0.13265007511626753, 4.871753492572071e-08, -1.8616501412023885, -1.6376268130782388],
              'mass_numbers': [1, 16, 16, 1],
              'masses': [1.00782503223, 15.99491461957, 15.99491461957, 1.00782503223],
              'molecular_charge': 0.0,
              'molecular_multiplicity': 1,
              'name': 'H2O2',
              'provenance': {'creator': 'QCElemental',
                             'routine': 'qcelemental.molparse.from_string',
                             'version': '0.27.1'},
              'real': [True, True, True, True],
              'schema_name': 'qcschema_molecule',
              'schema_version': 2,
              'symbols': ['H', 'O', 'O', 'H'],
              'validated': True},
 'protocols': {'stdout': True},
 'provenance': {'creator': 'QCElemental', 'routine': 'qcelemental.models.results', 'version': '0.27.1'},
 'schema_name': 'qcschema_input',
 'schema_version': 1}
--------------------------------------------------------------------------

Scratch directory: /tmp/
gradient() will perform analytic gradient computation.
   => Libint2 <=

    Primary   basis highest AM E, G, H:  5, 4, 3
    Auxiliary basis highest AM E, G, H:  6, 5, 4
    Onebody   basis highest AM E, G, H:  6, 5, 4
    Solid Harmonics ordering:            Gaussian

*** tstart() called on Barrys-MacBook-Pro.local
*** at Thu May 30 21:09:06 2024

   => Loading Basis Set <=

    Name: 6-31+G(D)
    Role: ORBITAL
    Keyword: BASIS
    atoms 1, 4 entry H          line    46 file /Users/blink/psi4conda/share/psi4/basis/6-31pg_d_.gbs 
    atoms 2-3  entry O          line   157 file /Users/blink/psi4conda/share/psi4/basis/6-31pg_d_.gbs 


         ---------------------------------------------------------
                                   SCF
               by Justin Turney, Rob Parrish, Andy Simmonett
                          and Daniel G. A. Smith
                              RKS Reference
                        4 Threads,   3814 MiB Core
         ---------------------------------------------------------

  ==> Geometry <==

    Molecular point group: c2
    Full point group: C2

    Geometry (in Bohr), charge = 0, multiplicity = 1:

       Center              X                  Y                   Z               Mass       
    ------------   -----------------  -----------------  -----------------  -----------------
         H           -0.000000048718     1.861650141202    -1.637626813078     1.007825032230
         O            0.000000066199     1.371212773772     0.132650075116    15.994914619570
         O           -0.000000066199    -1.371212773772     0.132650075116    15.994914619570
         H            0.000000048718    -1.861650141202    -1.637626813078     1.007825032230

  Running in c2 symmetry.

  Rotational constants: A =     10.08622  B =      0.89671  C =      0.82350 [cm^-1]
  Rotational constants: A = 302377.26649  B =  26882.75810  C =  24687.88891 [MHz]
  Nuclear repulsion =   36.656602370276097

  Charge       = 0
  Multiplicity = 1
  Electrons    = 18
  Nalpha       = 9
  Nbeta        = 9

  ==> Algorithm <==

  SCF Algorithm Type is DF.
  DIIS enabled.
  MOM disabled.
  Fractional occupation disabled.
  Guess Type is SAD.
  Energy threshold   = 1.00e-08
  Density threshold  = 1.00e-08
  Integral threshold = 1.00e-12

  ==> Primary Basis <==

  Basis Set: 6-31+G(D)
    Blend: 6-31+G(D)
    Number of shells: 20
    Number of basis functions: 42
    Number of Cartesian functions: 42
    Spherical Harmonics?: false
    Max angular momentum: 2

  ==> DFT Potential <==

   => LibXC <=

    Version 6.2.2
    S. Lehtola, C. Steigemann, M. J.T. Oliveira, and M. A.L. Marques.,  SoftwareX 7, 1–5 (2018) (10.1016/j.softx.2017.11.002)

   => Composite Functional: B3PW91 <= 

    B3PW91 Hyb-GGA Exchange-Correlation Functional

    A. D. Becke.,  J. Chem. Phys. 98, 5648 (1993) (10.1063/1.464913)

    Deriv               =              1
    GGA                 =           TRUE
    Meta                =          FALSE

    Exchange Hybrid     =           TRUE
    MP2 Hybrid          =          FALSE

   => Exchange Functionals <=

    0.0800   Slater exchange
    0.7200         Becke 88

   => Exact (HF) Exchange <=

    0.2000               HF 

   => Correlation Functionals <=

    0.1900    Perdew & Wang
    0.8100   Perdew & Wang 91

   => LibXC Density Thresholds  <==

    XC_HYB_GGA_XC_B3PW91:  1.00E-15 

   => Molecular Quadrature <=

    Radial Scheme          =       TREUTLER
    Pruning Scheme         =           NONE
    Nuclear Scheme         =       TREUTLER

    Blocking Scheme        =         OCTREE
    BS radius alpha        =              1
    Pruning alpha          =              1
    Radial Points          =             75
    Spherical Points       =            302
    Total Points           =          88328
    Total Blocks           =            690
    Max Points             =            252
    Max Functions          =             42
    Weights Tolerance      =       1.00E-15

   => Loading Basis Set <=

    Name: (6-31+G(D) AUX)
    Role: JKFIT
    Keyword: DF_BASIS_SCF
    atoms 1, 4 entry H          line   116 file /Users/blink/psi4conda/share/psi4/basis/heavy-aug-cc-pvdz-jkfit.gbs 
    atoms 2-3  entry O          line   310 file /Users/blink/psi4conda/share/psi4/basis/heavy-aug-cc-pvdz-jkfit.gbs 

  ==> Integral Setup <==

  DFHelper Memory: AOs need 0.004 GiB; user supplied 2.691 GiB. 
  Using in-core AOs.

  ==> MemDFJK: Density-Fitted J/K Matrices <==

    J tasked:                   Yes
    K tasked:                   Yes
    wK tasked:                   No
    OpenMP threads:               4
    Memory [MiB]:              2755
    Algorithm:                 Core
    Schwarz Cutoff:           1E-12
    Mask sparsity (%):       0.0000
    Fitting Condition:        1E-10

   => Auxiliary Basis Set <=

  Basis Set: (6-31+G(D) AUX)
    Blend: HEAVY-AUG-CC-PVDZ-JKFIT
    Number of shells: 74
    Number of basis functions: 252
    Number of Cartesian functions: 252
    Spherical Harmonics?: false
    Max angular momentum: 3

  Cached 100.0% of DFT collocation blocks in 0.103 [GiB].

  Minimum eigenvalue in the overlap matrix is 3.1905722673E-03.
  Reciprocal condition number of the overlap matrix is 5.4607381269E-04.
    Using symmetric orthogonalization.

  ==> Pre-Iterations <==

  SCF Guess: Superposition of Atomic Densities via on-the-fly atomic UHF (no occupation information).

   -------------------------
    Irrep   Nso     Nmo    
   -------------------------
     A         21      21 
     B         21      21 
   -------------------------
    Total      42      42
   -------------------------

  ==> Iterations <==

                           Total Energy        Delta E     RMS |[F,P]|

   @DF-RKS iter SAD:  -151.05122441509843   -1.51051e+02   0.00000e+00 
   @DF-RKS iter   1:  -151.36332036008531   -3.12096e-01   1.74473e-02 DIIS/ADIIS
   @DF-RKS iter   2:  -151.28537214214853    7.79482e-02   2.34241e-02 DIIS/ADIIS
   @DF-RKS iter   3:  -151.47229029298296   -1.86918e-01   1.23561e-03 DIIS/ADIIS
   @DF-RKS iter   4:  -151.47277970734535   -4.89414e-04   1.46952e-04 DIIS/ADIIS
   @DF-RKS iter   5:  -151.47278691613141   -7.20879e-06   2.18701e-05 DIIS
   @DF-RKS iter   6:  -151.47278706589157   -1.49760e-07   4.10874e-06 DIIS
   @DF-RKS iter   7:  -151.47278707209958   -6.20801e-09   1.65977e-07 DIIS
   @DF-RKS iter   8:  -151.47278707211339   -1.38130e-11   1.09880e-08 DIIS
   @DF-RKS iter   9:  -151.47278707211353   -1.42109e-13   1.67038e-09 DIIS
  Energy and wave function converged.


  ==> Post-Iterations <==

   Electrons on quadrature grid:
      Ntotal   =   17.9999929341 ; deviation = -7.066e-06 

    Orbital Energies [Eh]
    ---------------------

    Doubly Occupied:                                                      

       1A    -19.216989     1B    -19.216917     2A     -1.139528  
       2B     -0.921243     3A     -0.593999     4A     -0.445463  
       3B     -0.414567     4B     -0.401306     5A     -0.267995  

    Virtual:                                                              

       5B     -0.011746     6A      0.022159     6B      0.123097  
       7A      0.155095     7B      0.164633     8B      0.193857  
       8A      0.199549     9A      0.221661    10A      0.236246  
       9B      0.277148    10B      0.367263    11A      0.937877  
      11B      1.015789    12A      1.036535    12B      1.047349  
      13B      1.078103    13A      1.142702    14A      1.169284  
      15A      1.262932    14B      1.283101    15B      1.498761  
      16A      1.538570    16B      1.613544    17B      1.617518  
      17A      1.821141    18A      1.920873    18B      2.262086  
      19A      2.335177    20A      2.341026    19B      2.603464  
      20B      3.052955    21A      3.622790    21B      4.037116  

    Final Occupation by Irrep:
              A     B 
    DOCC [     5,    4 ]
    NA   [     5,    4 ]
    NB   [     5,    4 ]

  @DF-RKS Final Energy:  -151.47278707211353

   => Energetics <=

    Nuclear Repulsion Energy =             36.6566023702760972
    One-Electron Energy =                -280.7843574865158871
    Two-Electron Energy =                 106.9947083934812468
    DFT Exchange-Correlation Energy =     -14.3397403493549671
    Empirical Dispersion Energy =           0.0000000000000000
    VV10 Nonlocal Energy =                  0.0000000000000000
    Total Energy =                       -151.4727870721135048

Computation Completed


Properties will be evaluated at   0.000000,   0.000000,   0.000000 [a0]

Properties computed using the SCF density matrix


 Multipole Moments:

 ------------------------------------------------------------------------------------
     Multipole            Electronic (a.u.)      Nuclear  (a.u.)        Total (a.u.)
 ------------------------------------------------------------------------------------

 L = 1.  Multiply by 2.5417464519 to convert [e a0] to [Debye]
 Dipole X            :          0.0000000            0.0000000            0.0000000
 Dipole Y            :          0.0000000           -0.0000000           -0.0000000
 Dipole Z            :         -0.2407516           -1.1528524           -1.3936040
 Magnitude           :                                                    1.3936040

 ------------------------------------------------------------------------------------

*** tstop() called on Barrys-MacBook-Pro.local at Thu May 30 21:09:07 2024
Module time:
	user time   =       3.17 seconds =       0.05 minutes
	system time =       0.15 seconds =       0.00 minutes
	total time  =          1 seconds =       0.02 minutes
Total time:
	user time   =     990.55 seconds =      16.51 minutes
	system time =      43.79 seconds =       0.73 minutes
	total time  =       1376 seconds =      22.93 minutes

*** tstart() called on Barrys-MacBook-Pro.local
*** at Thu May 30 21:09:07 2024


         ------------------------------------------------------------
                                   SCF GRAD                          
                          Rob Parrish, Justin Turney,                
                       Andy Simmonett, and Alex Sokolov              
         ------------------------------------------------------------

  ==> Geometry <==

    Molecular point group: c2
    Full point group: C2

    Geometry (in Bohr), charge = 0, multiplicity = 1:

       Center              X                  Y                   Z               Mass       
    ------------   -----------------  -----------------  -----------------  -----------------
         H           -0.000000048718     1.861650141202    -1.637626813078     1.007825032230
         O            0.000000066199     1.371212773772     0.132650075116    15.994914619570
         O           -0.000000066199    -1.371212773772     0.132650075116    15.994914619570
         H            0.000000048718    -1.861650141202    -1.637626813078     1.007825032230

  Nuclear repulsion =   36.656602370276097

  ==> Basis Set <==

  Basis Set: 6-31+G(D)
    Blend: 6-31+G(D)
    Number of shells: 20
    Number of basis functions: 42
    Number of Cartesian functions: 42
    Spherical Harmonics?: false
    Max angular momentum: 2

  ==> DFJKGrad: Density-Fitted SCF Gradients <==

    Gradient:                    1
    J tasked:                  Yes
    K tasked:                  Yes
    wK tasked:                  No
    OpenMP threads:              4
    Integrals threads:           4
    Memory [MiB]:             2861
    Schwarz Cutoff:          1E-12
    Fitting Condition:       1E-10

   => Auxiliary Basis Set <=

  Basis Set: (6-31+G(D) AUX)
    Blend: HEAVY-AUG-CC-PVDZ-JKFIT
    Number of shells: 74
    Number of basis functions: 252
    Number of Cartesian functions: 252
    Spherical Harmonics?: false
    Max angular momentum: 3

  ==> DFT Potential <==

   => LibXC <=

    Version 6.2.2
    S. Lehtola, C. Steigemann, M. J.T. Oliveira, and M. A.L. Marques.,  SoftwareX 7, 1–5 (2018) (10.1016/j.softx.2017.11.002)

   => Composite Functional: B3PW91 <= 

    B3PW91 Hyb-GGA Exchange-Correlation Functional

    A. D. Becke.,  J. Chem. Phys. 98, 5648 (1993) (10.1063/1.464913)

    Deriv               =              1
    GGA                 =           TRUE
    Meta                =          FALSE

    Exchange Hybrid     =           TRUE
    MP2 Hybrid          =          FALSE

   => Exchange Functionals <=

    0.0800   Slater exchange
    0.7200         Becke 88

   => Exact (HF) Exchange <=

    0.2000               HF 

   => Correlation Functionals <=

    0.1900    Perdew & Wang
    0.8100   Perdew & Wang 91

   => LibXC Density Thresholds  <==

    XC_HYB_GGA_XC_B3PW91:  1.00E-15 

   => Molecular Quadrature <=

    Radial Scheme          =       TREUTLER
    Pruning Scheme         =           NONE
    Nuclear Scheme         =       TREUTLER

    Blocking Scheme        =         OCTREE
    BS radius alpha        =              1
    Pruning alpha          =              1
    Radial Points          =             75
    Spherical Points       =            302
    Total Points           =          88328
    Total Blocks           =            690
    Max Points             =            252
    Max Functions          =             42
    Weights Tolerance      =       1.00E-15


  -Total Gradient:
     Atom            X                  Y                   Z
    ------   -----------------  -----------------  -----------------
       1        0.000000001994    -0.000004762512    -0.000012195604
       2       -0.000000002709    -0.000096653202     0.000013791541
       3        0.000000002709     0.000096653202     0.000013791541
       4       -0.000000001994     0.000004762512    -0.000012195604


*** tstop() called on Barrys-MacBook-Pro.local at Thu May 30 21:09:07 2024
Module time:
	user time   =       0.68 seconds =       0.01 minutes
	system time =       0.03 seconds =       0.00 minutes
	total time  =          0 seconds =       0.00 minutes
Total time:
	user time   =     991.24 seconds =      16.52 minutes
	system time =      43.82 seconds =       0.73 minutes
	total time  =       1376 seconds =      22.93 minutes

    Psi4 stopped on: Thursday, 30 May 2024 09:09PM
    Psi4 wall time for execution: 0:00:01.08


    -----------------------------------------------------------------------
          Psi4: An Open-Source Ab Initio Electronic Structure Package
                               Psi4 1.9.1 release

                         Git: Rev {} zzzzzzz 


    D. G. A. Smith, L. A. Burns, A. C. Simmonett, R. M. Parrish,
    M. C. Schieber, R. Galvelis, P. Kraus, H. Kruse, R. Di Remigio,
    A. Alenaizan, A. M. James, S. Lehtola, J. P. Misiewicz, M. Scheurer,
    R. A. Shaw, J. B. Schriber, Y. Xie, Z. L. Glick, D. A. Sirianni,
    J. S. O'Brien, J. M. Waldrop, A. Kumar, E. G. Hohenstein,
    B. P. Pritchard, B. R. Brooks, H. F. Schaefer III, A. Yu. Sokolov,
    K. Patkowski, A. E. DePrince III, U. Bozkaya, R. A. King,
    F. A. Evangelista, J. M. Turney, T. D. Crawford, C. D. Sherrill,
    J. Chem. Phys. 152(18) 184108 (2020). https://doi.org/10.1063/5.0006002

                            Additional Code Authors
    E. T. Seidl, C. L. Janssen, E. F. Valeev, M. L. Leininger,
    J. F. Gonthier, R. M. Richard, H. R. McAlexander, M. Saitow, X. Wang,
    P. Verma, M. H. Lechner, A. Jiang, S. Behnle, A. G. Heide,
    M. F. Herbst, and D. L. Poole

             Previous Authors, Complete List of Code Contributors,
                       and Citations for Specific Modules
    https://github.com/psi4/psi4/blob/master/codemeta.json
    https://github.com/psi4/psi4/graphs/contributors
    http://psicode.org/psi4manual/master/introduction.html#citing-psifour

    -----------------------------------------------------------------------


    Psi4 started on: Thursday, 30 May 2024 08:41PM

    Process ID: 56818
    Host:       Barrys-MacBook-Pro.local
    PSIDATADIR: /Users/blink/psi4conda/share/psi4
    Memory:     3.7 GiB
    Threads:    4
    
  ==> Input QCSchema <==

--------------------------------------------------------------------------
{'driver': 'gradient',
 'extras': {'psiapi': True, 'wfn_qcvars_only': True},
 'id': None,
 'keywords': {'ENSURE_BT_CONVERGENCE': 1,
              'FULL_HESS_EVERY': 0,
              'GEOM_MAXITER': 500,
              'G_CONVERGENCE': 'GAU_VERYTIGHT',
              'IRC_DIRECTION': 'FORWARD',
              'IRC_POINTS': 100,
              'IRC_STEP_SIZE': 0.25,
              'NORMAL_MODES_WRITE': 1,
              'OPT_TYPE': 'IRC',
              'PARENT_SYMMETRY': 'C2(z)',
              'REFERENCE': 'RHF',
              'SCF__D_CONVERGENCE': 1e-08,
              'SCF__E_CONVERGENCE': 1e-08,
              'SCF__INTS_TOLERANCE': 1e-12,
              'function_kwargs': {'write_orbitals': False}},
 'model': {'basis': '6-31+g(d)', 'method': 'b3pw91'},
 'molecule': {'atom_labels': ['', '', '', ''],
              'atomic_numbers': [1, 8, 8, 1],
              'extras': {},
              'fix_com': True,
              'fix_orientation': True,
              'fix_symmetry': 'c2(z)',
              'fragment_charges': [0.0],
              'fragment_multiplicities': [1],
              'fragments': [[0, 1, 2, 3]],
              'geometry': [-0.0033335658568973713, 1.8616501412125201, -1.6376268130782388, 0.00028523310565967667,
                           1.3712127737577975, 0.13265007511626753, -0.00028523310565967667, -1.3712127737577975,
                           0.13265007511626753, 0.0033335658568973713, -1.8616501412125201, -1.6376268130782388],
              'mass_numbers': [1, 16, 16, 1],
              'masses': [1.00782503223, 15.99491461957, 15.99491461957, 1.00782503223],
              'molecular_charge': 0.0,
              'molecular_multiplicity': 1,
              'name': 'H2O2',
              'provenance': {'creator': 'QCElemental',
                             'routine': 'qcelemental.molparse.from_string',
                             'version': '0.27.1'},
              'real': [True, True, True, True],
              'schema_name': 'qcschema_molecule',
              'schema_version': 2,
              'symbols': ['H', 'O', 'O', 'H'],
              'validated': True},
 'protocols': {'stdout': True},
 'provenance': {'creator': 'QCElemental', 'routine': 'qcelemental.models.results', 'version': '0.27.1'},
 'schema_name': 'qcschema_input',
 'schema_version': 1}
--------------------------------------------------------------------------

Scratch directory: /tmp/
gradient() will perform analytic gradient computation.
   => Libint2 <=

    Primary   basis highest AM E, G, H:  5, 4, 3
    Auxiliary basis highest AM E, G, H:  6, 5, 4
    Onebody   basis highest AM E, G, H:  6, 5, 4
    Solid Harmonics ordering:            Gaussian

*** tstart() called on Barrys-MacBook-Pro.local
*** at Thu May 30 21:09:07 2024

   => Loading Basis Set <=

    Name: 6-31+G(D)
    Role: ORBITAL
    Keyword: BASIS
    atoms 1, 4 entry H          line    46 file /Users/blink/psi4conda/share/psi4/basis/6-31pg_d_.gbs 
    atoms 2-3  entry O          line   157 file /Users/blink/psi4conda/share/psi4/basis/6-31pg_d_.gbs 


         ---------------------------------------------------------
                                   SCF
               by Justin Turney, Rob Parrish, Andy Simmonett
                          and Daniel G. A. Smith
                              RKS Reference
                        4 Threads,   3814 MiB Core
         ---------------------------------------------------------

  ==> Geometry <==

    Molecular point group: c2
    Full point group: C2

    Geometry (in Bohr), charge = 0, multiplicity = 1:

       Center              X                  Y                   Z               Mass       
    ------------   -----------------  -----------------  -----------------  -----------------
         H           -0.003333565857     1.861650141213    -1.637626813078     1.007825032230
         O            0.000285233106     1.371212773758     0.132650075116    15.994914619570
         O           -0.000285233106    -1.371212773758     0.132650075116    15.994914619570
         H            0.003333565857    -1.861650141213    -1.637626813078     1.007825032230

  Running in c2 symmetry.

  Rotational constants: A =     10.08618  B =      0.89671  C =      0.82350 [cm^-1]
  Rotational constants: A = 302375.99985  B =  26882.74809  C =  24687.88891 [MHz]
  Nuclear repulsion =   36.656583049050518

  Charge       = 0
  Multiplicity = 1
  Electrons    = 18
  Nalpha       = 9
  Nbeta        = 9

  ==> Algorithm <==

  SCF Algorithm Type is DF.
  DIIS enabled.
  MOM disabled.
  Fractional occupation disabled.
  Guess Type is SAD.
  Energy threshold   = 1.00e-08
  Density threshold  = 1.00e-08
  Integral threshold = 1.00e-12

  ==> Primary Basis <==

  Basis Set: 6-31+G(D)
    Blend: 6-31+G(D)
    Number of shells: 20
    Number of basis functions: 42
    Number of Cartesian functions: 42
    Spherical Harmonics?: false
    Max angular momentum: 2

  ==> DFT Potential <==

   => LibXC <=

    Version 6.2.2
    S. Lehtola, C. Steigemann, M. J.T. Oliveira, and M. A.L. Marques.,  SoftwareX 7, 1–5 (2018) (10.1016/j.softx.2017.11.002)

   => Composite Functional: B3PW91 <= 

    B3PW91 Hyb-GGA Exchange-Correlation Functional

    A. D. Becke.,  J. Chem. Phys. 98, 5648 (1993) (10.1063/1.464913)

    Deriv               =              1
    GGA                 =           TRUE
    Meta                =          FALSE

    Exchange Hybrid     =           TRUE
    MP2 Hybrid          =          FALSE

   => Exchange Functionals <=

    0.0800   Slater exchange
    0.7200         Becke 88

   => Exact (HF) Exchange <=

    0.2000               HF 

   => Correlation Functionals <=

    0.1900    Perdew & Wang
    0.8100   Perdew & Wang 91

   => LibXC Density Thresholds  <==

    XC_HYB_GGA_XC_B3PW91:  1.00E-15 

   => Molecular Quadrature <=

    Radial Scheme          =       TREUTLER
    Pruning Scheme         =           NONE
    Nuclear Scheme         =       TREUTLER

    Blocking Scheme        =         OCTREE
    BS radius alpha        =              1
    Pruning alpha          =              1
    Radial Points          =             75
    Spherical Points       =            302
    Total Points           =          88330
    Total Blocks           =            698
    Max Points             =            256
    Max Functions          =             42
    Weights Tolerance      =       1.00E-15

   => Loading Basis Set <=

    Name: (6-31+G(D) AUX)
    Role: JKFIT
    Keyword: DF_BASIS_SCF
    atoms 1, 4 entry H          line   116 file /Users/blink/psi4conda/share/psi4/basis/heavy-aug-cc-pvdz-jkfit.gbs 
    atoms 2-3  entry O          line   310 file /Users/blink/psi4conda/share/psi4/basis/heavy-aug-cc-pvdz-jkfit.gbs 

  ==> Integral Setup <==

  DFHelper Memory: AOs need 0.004 GiB; user supplied 2.691 GiB. 
  Using in-core AOs.

  ==> MemDFJK: Density-Fitted J/K Matrices <==

    J tasked:                   Yes
    K tasked:                   Yes
    wK tasked:                   No
    OpenMP threads:               4
    Memory [MiB]:              2755
    Algorithm:                 Core
    Schwarz Cutoff:           1E-12
    Mask sparsity (%):       0.0000
    Fitting Condition:        1E-10

   => Auxiliary Basis Set <=

  Basis Set: (6-31+G(D) AUX)
    Blend: HEAVY-AUG-CC-PVDZ-JKFIT
    Number of shells: 74
    Number of basis functions: 252
    Number of Cartesian functions: 252
    Spherical Harmonics?: false
    Max angular momentum: 3

  Cached 100.0% of DFT collocation blocks in 0.103 [GiB].

  Minimum eigenvalue in the overlap matrix is 3.1905800773E-03.
  Reciprocal condition number of the overlap matrix is 5.4607546591E-04.
    Using symmetric orthogonalization.

  ==> Pre-Iterations <==

  SCF Guess: Superposition of Atomic Densities via on-the-fly atomic UHF (no occupation information).

   -------------------------
    Irrep   Nso     Nmo    
   -------------------------
     A         21      21 
     B         21      21 
   -------------------------
    Total      42      42
   -------------------------

  ==> Iterations <==

                           Total Energy        Delta E     RMS |[F,P]|

   @DF-RKS iter SAD:  -151.05122278752850   -1.51051e+02   0.00000e+00 
   @DF-RKS iter   1:  -151.36332050064550   -3.12098e-01   1.74473e-02 DIIS/ADIIS
   @DF-RKS iter   2:  -151.28537145234654    7.79490e-02   2.34242e-02 DIIS/ADIIS
   @DF-RKS iter   3:  -151.47229049261938   -1.86919e-01   1.23561e-03 DIIS/ADIIS
   @DF-RKS iter   4:  -151.47277990649346   -4.89414e-04   1.46953e-04 DIIS/ADIIS
   @DF-RKS iter   5:  -151.47278711536646   -7.20887e-06   2.18702e-05 DIIS
   @DF-RKS iter   6:  -151.47278726512840   -1.49762e-07   4.10874e-06 DIIS
   @DF-RKS iter   7:  -151.47278727133664   -6.20824e-09   1.65980e-07 DIIS
   @DF-RKS iter   8:  -151.47278727135034   -1.36993e-11   1.09915e-08 DIIS
   @DF-RKS iter   9:  -151.47278727135034    0.00000e+00   1.67285e-09 DIIS
  Energy and wave function converged.


  ==> Post-Iterations <==

   Electrons on quadrature grid:
      Ntotal   =   17.9999929360 ; deviation = -7.064e-06 

    Orbital Energies [Eh]
    ---------------------

    Doubly Occupied:                                                      

       1A    -19.216989     1B    -19.216917     2A     -1.139527  
       2B     -0.921242     3A     -0.593998     4A     -0.445463  
       3B     -0.414571     4B     -0.401301     5A     -0.267995  

    Virtual:                                                              

       5B     -0.011746     6A      0.022159     6B      0.123096  
       7A      0.155095     7B      0.164633     8B      0.193857  
       8A      0.199549     9A      0.221660    10A      0.236246  
       9B      0.277146    10B      0.367262    11A      0.937876  
      11B      1.015784    12A      1.036535    12B      1.047348  
      13B      1.078104    13A      1.142702    14A      1.169284  
      15A      1.262932    14B      1.283100    15B      1.498761  
      16A      1.538570    16B      1.613533    17B      1.617533  
      17A      1.821137    18A      1.920875    18B      2.262087  
      19A      2.335177    20A      2.341027    19B      2.603458  
      20B      3.052955    21A      3.622789    21B      4.037116  

    Final Occupation by Irrep:
              A     B 
    DOCC [     5,    4 ]
    NA   [     5,    4 ]
    NB   [     5,    4 ]

  @DF-RKS Final Energy:  -151.47278727135034

   => Energetics <=

    Nuclear Repulsion Energy =             36.6565830490505178
    One-Electron Energy =                -280.7843234062161173
    Two-Electron Energy =                 106.9946920180640291
    DFT Exchange-Correlation Energy =     -14.3397389322487747
    Empirical Dispersion Energy =           0.0000000000000000
    VV10 Nonlocal Energy =                  0.0000000000000000
    Total Energy =                       -151.4727872713503416

Computation Completed


Properties will be evaluated at   0.000000,   0.000000,   0.000000 [a0]

Properties computed using the SCF density matrix


 Multipole Moments:

 ------------------------------------------------------------------------------------
     Multipole            Electronic (a.u.)      Nuclear  (a.u.)        Total (a.u.)
 ------------------------------------------------------------------------------------

 L = 1.  Multiply by 2.5417464519 to convert [e a0] to [Debye]
 Dipole X            :          0.0000000            0.0000000            0.0000000
 Dipole Y            :          0.0000000           -0.0000000           -0.0000000
 Dipole Z            :         -0.2407492           -1.1528524           -1.3936016
 Magnitude           :                                                    1.3936016

 ------------------------------------------------------------------------------------

*** tstop() called on Barrys-MacBook-Pro.local at Thu May 30 21:09:08 2024
Module time:
	user time   =       3.24 seconds =       0.05 minutes
	system time =       0.15 seconds =       0.00 minutes
	total time  =          1 seconds =       0.02 minutes
Total time:
	user time   =     994.81 seconds =      16.58 minutes
	system time =      43.98 seconds =       0.73 minutes
	total time  =       1377 seconds =      22.95 minutes

*** tstart() called on Barrys-MacBook-Pro.local
*** at Thu May 30 21:09:08 2024


         ------------------------------------------------------------
                                   SCF GRAD                          
                          Rob Parrish, Justin Turney,                
                       Andy Simmonett, and Alex Sokolov              
         ------------------------------------------------------------

  ==> Geometry <==

    Molecular point group: c2
    Full point group: C2

    Geometry (in Bohr), charge = 0, multiplicity = 1:

       Center              X                  Y                   Z               Mass       
    ------------   -----------------  -----------------  -----------------  -----------------
         H           -0.003333565857     1.861650141213    -1.637626813078     1.007825032230
         O            0.000285233106     1.371212773758     0.132650075116    15.994914619570
         O           -0.000285233106    -1.371212773758     0.132650075116    15.994914619570
         H            0.003333565857    -1.861650141213    -1.637626813078     1.007825032230

  Nuclear repulsion =   36.656583049050518

  ==> Basis Set <==

  Basis Set: 6-31+G(D)
    Blend: 6-31+G(D)
    Number of shells: 20
    Number of basis functions: 42
    Number of Cartesian functions: 42
    Spherical Harmonics?: false
    Max angular momentum: 2

  ==> DFJKGrad: Density-Fitted SCF Gradients <==

    Gradient:                    1
    J tasked:                  Yes
    K tasked:                  Yes
    wK tasked:                  No
    OpenMP threads:              4
    Integrals threads:           4
    Memory [MiB]:             2861
    Schwarz Cutoff:          1E-12
    Fitting Condition:       1E-10

   => Auxiliary Basis Set <=

  Basis Set: (6-31+G(D) AUX)
    Blend: HEAVY-AUG-CC-PVDZ-JKFIT
    Number of shells: 74
    Number of basis functions: 252
    Number of Cartesian functions: 252
    Spherical Harmonics?: false
    Max angular momentum: 3

  ==> DFT Potential <==

   => LibXC <=

    Version 6.2.2
    S. Lehtola, C. Steigemann, M. J.T. Oliveira, and M. A.L. Marques.,  SoftwareX 7, 1–5 (2018) (10.1016/j.softx.2017.11.002)

   => Composite Functional: B3PW91 <= 

    B3PW91 Hyb-GGA Exchange-Correlation Functional

    A. D. Becke.,  J. Chem. Phys. 98, 5648 (1993) (10.1063/1.464913)

    Deriv               =              1
    GGA                 =           TRUE
    Meta                =          FALSE

    Exchange Hybrid     =           TRUE
    MP2 Hybrid          =          FALSE

   => Exchange Functionals <=

    0.0800   Slater exchange
    0.7200         Becke 88

   => Exact (HF) Exchange <=

    0.2000               HF 

   => Correlation Functionals <=

    0.1900    Perdew & Wang
    0.8100   Perdew & Wang 91

   => LibXC Density Thresholds  <==

    XC_HYB_GGA_XC_B3PW91:  1.00E-15 

   => Molecular Quadrature <=

    Radial Scheme          =       TREUTLER
    Pruning Scheme         =           NONE
    Nuclear Scheme         =       TREUTLER

    Blocking Scheme        =         OCTREE
    BS radius alpha        =              1
    Pruning alpha          =              1
    Radial Points          =             75
    Spherical Points       =            302
    Total Points           =          88330
    Total Blocks           =            698
    Max Points             =            256
    Max Functions          =             42
    Weights Tolerance      =       1.00E-15


  -Total Gradient:
     Atom            X                  Y                   Z
    ------   -----------------  -----------------  -----------------
       1        0.000053532780    -0.000004328725    -0.000013986938
       2       -0.000072624280    -0.000096960882     0.000015580828
       3        0.000072624280     0.000096960882     0.000015580828
       4       -0.000053532780     0.000004328725    -0.000013986938


*** tstop() called on Barrys-MacBook-Pro.local at Thu May 30 21:09:09 2024
Module time:
	user time   =       0.63 seconds =       0.01 minutes
	system time =       0.03 seconds =       0.00 minutes
	total time  =          1 seconds =       0.02 minutes
Total time:
	user time   =     995.44 seconds =      16.59 minutes
	system time =      44.01 seconds =       0.73 minutes
	total time  =       1378 seconds =      22.97 minutes

    Psi4 stopped on: Thursday, 30 May 2024 09:09PM
    Psi4 wall time for execution: 0:00:01.14


    -----------------------------------------------------------------------
          Psi4: An Open-Source Ab Initio Electronic Structure Package
                               Psi4 1.9.1 release

                         Git: Rev {} zzzzzzz 


    D. G. A. Smith, L. A. Burns, A. C. Simmonett, R. M. Parrish,
    M. C. Schieber, R. Galvelis, P. Kraus, H. Kruse, R. Di Remigio,
    A. Alenaizan, A. M. James, S. Lehtola, J. P. Misiewicz, M. Scheurer,
    R. A. Shaw, J. B. Schriber, Y. Xie, Z. L. Glick, D. A. Sirianni,
    J. S. O'Brien, J. M. Waldrop, A. Kumar, E. G. Hohenstein,
    B. P. Pritchard, B. R. Brooks, H. F. Schaefer III, A. Yu. Sokolov,
    K. Patkowski, A. E. DePrince III, U. Bozkaya, R. A. King,
    F. A. Evangelista, J. M. Turney, T. D. Crawford, C. D. Sherrill,
    J. Chem. Phys. 152(18) 184108 (2020). https://doi.org/10.1063/5.0006002

                            Additional Code Authors
    E. T. Seidl, C. L. Janssen, E. F. Valeev, M. L. Leininger,
    J. F. Gonthier, R. M. Richard, H. R. McAlexander, M. Saitow, X. Wang,
    P. Verma, M. H. Lechner, A. Jiang, S. Behnle, A. G. Heide,
    M. F. Herbst, and D. L. Poole

             Previous Authors, Complete List of Code Contributors,
                       and Citations for Specific Modules
    https://github.com/psi4/psi4/blob/master/codemeta.json
    https://github.com/psi4/psi4/graphs/contributors
    http://psicode.org/psi4manual/master/introduction.html#citing-psifour

    -----------------------------------------------------------------------


    Psi4 started on: Thursday, 30 May 2024 08:41PM

    Process ID: 56818
    Host:       Barrys-MacBook-Pro.local
    PSIDATADIR: /Users/blink/psi4conda/share/psi4
    Memory:     3.7 GiB
    Threads:    4
    
  ==> Input QCSchema <==

--------------------------------------------------------------------------
{'driver': 'gradient',
 'extras': {'psiapi': True, 'wfn_qcvars_only': True},
 'id': None,
 'keywords': {'ENSURE_BT_CONVERGENCE': 1,
              'FULL_HESS_EVERY': 0,
              'GEOM_MAXITER': 500,
              'G_CONVERGENCE': 'GAU_VERYTIGHT',
              'IRC_DIRECTION': 'FORWARD',
              'IRC_POINTS': 100,
              'IRC_STEP_SIZE': 0.25,
              'NORMAL_MODES_WRITE': 1,
              'OPT_TYPE': 'IRC',
              'PARENT_SYMMETRY': 'C2(z)',
              'REFERENCE': 'RHF',
              'SCF__D_CONVERGENCE': 1e-08,
              'SCF__E_CONVERGENCE': 1e-08,
              'SCF__INTS_TOLERANCE': 1e-12,
              'function_kwargs': {'write_orbitals': False}},
 'model': {'basis': '6-31+g(d)', 'method': 'b3pw91'},
 'molecule': {'atom_labels': ['', '', '', ''],
              'atomic_numbers': [1, 8, 8, 1],
              'extras': {},
              'fix_com': True,
              'fix_orientation': True,
              'fix_symmetry': 'c2(z)',
              'fragment_charges': [0.0],
              'fragment_multiplicities': [1],
              'fragments': [[0, 1, 2, 3]],
              'geometry': [0.0033334684218272914, 1.8616501411922568, -1.6376268130782388, -0.0002851007075900973,
                           1.371212773785332, 0.13265007511626753, 0.0002851007075900973, -1.371212773785332,
                           0.13265007511626753, -0.0033334684218272914, -1.8616501411922568, -1.6376268130782388],
              'mass_numbers': [1, 16, 16, 1],
              'masses': [1.00782503223, 15.99491461957, 15.99491461957, 1.00782503223],
              'molecular_charge': 0.0,
              'molecular_multiplicity': 1,
              'name': 'H2O2',
              'provenance': {'creator': 'QCElemental',
                             'routine': 'qcelemental.molparse.from_string',
                             'version': '0.27.1'},
              'real': [True, True, True, True],
              'schema_name': 'qcschema_molecule',
              'schema_version': 2,
              'symbols': ['H', 'O', 'O', 'H'],
              'validated': True},
 'protocols': {'stdout': True},
 'provenance': {'creator': 'QCElemental', 'routine': 'qcelemental.models.results', 'version': '0.27.1'},
 'schema_name': 'qcschema_input',
 'schema_version': 1}
--------------------------------------------------------------------------

Scratch directory: /tmp/
gradient() will perform analytic gradient computation.
   => Libint2 <=

    Primary   basis highest AM E, G, H:  5, 4, 3
    Auxiliary basis highest AM E, G, H:  6, 5, 4
    Onebody   basis highest AM E, G, H:  6, 5, 4
    Solid Harmonics ordering:            Gaussian

*** tstart() called on Barrys-MacBook-Pro.local
*** at Thu May 30 21:09:09 2024

   => Loading Basis Set <=

    Name: 6-31+G(D)
    Role: ORBITAL
    Keyword: BASIS
    atoms 1, 4 entry H          line    46 file /Users/blink/psi4conda/share/psi4/basis/6-31pg_d_.gbs 
    atoms 2-3  entry O          line   157 file /Users/blink/psi4conda/share/psi4/basis/6-31pg_d_.gbs 


         ---------------------------------------------------------
                                   SCF
               by Justin Turney, Rob Parrish, Andy Simmonett
                          and Daniel G. A. Smith
                              RKS Reference
                        4 Threads,   3814 MiB Core
         ---------------------------------------------------------

  ==> Geometry <==

    Molecular point group: c2
    Full point group: C2

    Geometry (in Bohr), charge = 0, multiplicity = 1:

       Center              X                  Y                   Z               Mass       
    ------------   -----------------  -----------------  -----------------  -----------------
         H            0.003333468422     1.861650141192    -1.637626813078     1.007825032230
         O           -0.000285100708     1.371212773785     0.132650075116    15.994914619570
         O            0.000285100708    -1.371212773785     0.132650075116    15.994914619570
         H           -0.003333468422    -1.861650141192    -1.637626813078     1.007825032230

  Running in c2 symmetry.

  Rotational constants: A =     10.08618  B =      0.89671  C =      0.82350 [cm^-1]
  Rotational constants: A = 302376.00004  B =  26882.74809  C =  24687.88891 [MHz]
  Nuclear repulsion =   36.656583051244318

  Charge       = 0
  Multiplicity = 1
  Electrons    = 18
  Nalpha       = 9
  Nbeta        = 9

  ==> Algorithm <==

  SCF Algorithm Type is DF.
  DIIS enabled.
  MOM disabled.
  Fractional occupation disabled.
  Guess Type is SAD.
  Energy threshold   = 1.00e-08
  Density threshold  = 1.00e-08
  Integral threshold = 1.00e-12

  ==> Primary Basis <==

  Basis Set: 6-31+G(D)
    Blend: 6-31+G(D)
    Number of shells: 20
    Number of basis functions: 42
    Number of Cartesian functions: 42
    Spherical Harmonics?: false
    Max angular momentum: 2

  ==> DFT Potential <==

   => LibXC <=

    Version 6.2.2
    S. Lehtola, C. Steigemann, M. J.T. Oliveira, and M. A.L. Marques.,  SoftwareX 7, 1–5 (2018) (10.1016/j.softx.2017.11.002)

   => Composite Functional: B3PW91 <= 

    B3PW91 Hyb-GGA Exchange-Correlation Functional

    A. D. Becke.,  J. Chem. Phys. 98, 5648 (1993) (10.1063/1.464913)

    Deriv               =              1
    GGA                 =           TRUE
    Meta                =          FALSE

    Exchange Hybrid     =           TRUE
    MP2 Hybrid          =          FALSE

   => Exchange Functionals <=

    0.0800   Slater exchange
    0.7200         Becke 88

   => Exact (HF) Exchange <=

    0.2000               HF 

   => Correlation Functionals <=

    0.1900    Perdew & Wang
    0.8100   Perdew & Wang 91

   => LibXC Density Thresholds  <==

    XC_HYB_GGA_XC_B3PW91:  1.00E-15 

   => Molecular Quadrature <=

    Radial Scheme          =       TREUTLER
    Pruning Scheme         =           NONE
    Nuclear Scheme         =       TREUTLER

    Blocking Scheme        =         OCTREE
    BS radius alpha        =              1
    Pruning alpha          =              1
    Radial Points          =             75
    Spherical Points       =            302
    Total Points           =          88328
    Total Blocks           =            698
    Max Points             =            256
    Max Functions          =             42
    Weights Tolerance      =       1.00E-15

   => Loading Basis Set <=

    Name: (6-31+G(D) AUX)
    Role: JKFIT
    Keyword: DF_BASIS_SCF
    atoms 1, 4 entry H          line   116 file /Users/blink/psi4conda/share/psi4/basis/heavy-aug-cc-pvdz-jkfit.gbs 
    atoms 2-3  entry O          line   310 file /Users/blink/psi4conda/share/psi4/basis/heavy-aug-cc-pvdz-jkfit.gbs 

  ==> Integral Setup <==

  DFHelper Memory: AOs need 0.004 GiB; user supplied 2.691 GiB. 
  Using in-core AOs.

  ==> MemDFJK: Density-Fitted J/K Matrices <==

    J tasked:                   Yes
    K tasked:                   Yes
    wK tasked:                   No
    OpenMP threads:               4
    Memory [MiB]:              2755
    Algorithm:                 Core
    Schwarz Cutoff:           1E-12
    Mask sparsity (%):       0.0000
    Fitting Condition:        1E-10

   => Auxiliary Basis Set <=

  Basis Set: (6-31+G(D) AUX)
    Blend: HEAVY-AUG-CC-PVDZ-JKFIT
    Number of shells: 74
    Number of basis functions: 252
    Number of Cartesian functions: 252
    Spherical Harmonics?: false
    Max angular momentum: 3

  Cached 100.0% of DFT collocation blocks in 0.103 [GiB].

  Minimum eigenvalue in the overlap matrix is 3.1905800763E-03.
  Reciprocal condition number of the overlap matrix is 5.4607546570E-04.
    Using symmetric orthogonalization.

  ==> Pre-Iterations <==

  SCF Guess: Superposition of Atomic Densities via on-the-fly atomic UHF (no occupation information).

   -------------------------
    Irrep   Nso     Nmo    
   -------------------------
     A         21      21 
     B         21      21 
   -------------------------
    Total      42      42
   -------------------------

  ==> Iterations <==

                           Total Energy        Delta E     RMS |[F,P]|

   @DF-RKS iter SAD:  -151.05122278770583   -1.51051e+02   0.00000e+00 
   @DF-RKS iter   1:  -151.36332050061037   -3.12098e-01   1.74473e-02 DIIS/ADIIS
   @DF-RKS iter   2:  -151.28537145241671    7.79490e-02   2.34242e-02 DIIS/ADIIS
   @DF-RKS iter   3:  -151.47229049257666   -1.86919e-01   1.23561e-03 DIIS/ADIIS
   @DF-RKS iter   4:  -151.47277990645068   -4.89414e-04   1.46953e-04 DIIS/ADIIS
   @DF-RKS iter   5:  -151.47278711532380   -7.20887e-06   2.18702e-05 DIIS
   @DF-RKS iter   6:  -151.47278726508583   -1.49762e-07   4.10874e-06 DIIS
   @DF-RKS iter   7:  -151.47278727129401   -6.20818e-09   1.65980e-07 DIIS
   @DF-RKS iter   8:  -151.47278727130771   -1.36993e-11   1.09915e-08 DIIS
   @DF-RKS iter   9:  -151.47278727130785   -1.42109e-13   1.67285e-09 DIIS
  Energy and wave function converged.


  ==> Post-Iterations <==

   Electrons on quadrature grid:
      Ntotal   =   17.9999929360 ; deviation = -7.064e-06 

    Orbital Energies [Eh]
    ---------------------

    Doubly Occupied:                                                      

       1A    -19.216989     1B    -19.216917     2A     -1.139527  
       2B     -0.921242     3A     -0.593998     4A     -0.445463  
       3B     -0.414571     4B     -0.401301     5A     -0.267995  

    Virtual:                                                              

       5B     -0.011746     6A      0.022159     6B      0.123096  
       7A      0.155095     7B      0.164633     8B      0.193857  
       8A      0.199549     9A      0.221660    10A      0.236246  
       9B      0.277146    10B      0.367262    11A      0.937876  
      11B      1.015784    12A      1.036535    12B      1.047348  
      13B      1.078104    13A      1.142702    14A      1.169284  
      15A      1.262932    14B      1.283100    15B      1.498761  
      16A      1.538570    16B      1.613533    17B      1.617533  
      17A      1.821137    18A      1.920875    18B      2.262087  
      19A      2.335177    20A      2.341027    19B      2.603458  
      20B      3.052955    21A      3.622789    21B      4.037116  

    Final Occupation by Irrep:
              A     B 
    DOCC [     5,    4 ]
    NA   [     5,    4 ]
    NB   [     5,    4 ]

  @DF-RKS Final Energy:  -151.47278727130785

   => Energetics <=

    Nuclear Repulsion Energy =             36.6565830512443185
    One-Electron Energy =                -280.7843234100533323
    Two-Electron Energy =                 106.9946920199259921
    DFT Exchange-Correlation Energy =     -14.3397389324248241
    Empirical Dispersion Energy =           0.0000000000000000
    VV10 Nonlocal Energy =                  0.0000000000000000
    Total Energy =                       -151.4727872713078511

Computation Completed


Properties will be evaluated at   0.000000,   0.000000,   0.000000 [a0]

Properties computed using the SCF density matrix


 Multipole Moments:

 ------------------------------------------------------------------------------------
     Multipole            Electronic (a.u.)      Nuclear  (a.u.)        Total (a.u.)
 ------------------------------------------------------------------------------------

 L = 1.  Multiply by 2.5417464519 to convert [e a0] to [Debye]
 Dipole X            :          0.0000000            0.0000000            0.0000000
 Dipole Y            :          0.0000000            0.0000000            0.0000000
 Dipole Z            :         -0.2407492           -1.1528524           -1.3936016
 Magnitude           :                                                    1.3936016

 ------------------------------------------------------------------------------------

*** tstop() called on Barrys-MacBook-Pro.local at Thu May 30 21:09:09 2024
Module time:
	user time   =       3.22 seconds =       0.05 minutes
	system time =       0.15 seconds =       0.00 minutes
	total time  =          0 seconds =       0.00 minutes
Total time:
	user time   =     998.94 seconds =      16.65 minutes
	system time =      44.17 seconds =       0.74 minutes
	total time  =       1378 seconds =      22.97 minutes

*** tstart() called on Barrys-MacBook-Pro.local
*** at Thu May 30 21:09:09 2024


         ------------------------------------------------------------
                                   SCF GRAD                          
                          Rob Parrish, Justin Turney,                
                       Andy Simmonett, and Alex Sokolov              
         ------------------------------------------------------------

  ==> Geometry <==

    Molecular point group: c2
    Full point group: C2

    Geometry (in Bohr), charge = 0, multiplicity = 1:

       Center              X                  Y                   Z               Mass       
    ------------   -----------------  -----------------  -----------------  -----------------
         H            0.003333468422     1.861650141192    -1.637626813078     1.007825032230
         O           -0.000285100708     1.371212773785     0.132650075116    15.994914619570
         O            0.000285100708    -1.371212773785     0.132650075116    15.994914619570
         H           -0.003333468422    -1.861650141192    -1.637626813078     1.007825032230

  Nuclear repulsion =   36.656583051244318

  ==> Basis Set <==

  Basis Set: 6-31+G(D)
    Blend: 6-31+G(D)
    Number of shells: 20
    Number of basis functions: 42
    Number of Cartesian functions: 42
    Spherical Harmonics?: false
    Max angular momentum: 2

  ==> DFJKGrad: Density-Fitted SCF Gradients <==

    Gradient:                    1
    J tasked:                  Yes
    K tasked:                  Yes
    wK tasked:                  No
    OpenMP threads:              4
    Integrals threads:           4
    Memory [MiB]:             2861
    Schwarz Cutoff:          1E-12
    Fitting Condition:       1E-10

   => Auxiliary Basis Set <=

  Basis Set: (6-31+G(D) AUX)
    Blend: HEAVY-AUG-CC-PVDZ-JKFIT
    Number of shells: 74
    Number of basis functions: 252
    Number of Cartesian functions: 252
    Spherical Harmonics?: false
    Max angular momentum: 3

  ==> DFT Potential <==

   => LibXC <=

    Version 6.2.2
    S. Lehtola, C. Steigemann, M. J.T. Oliveira, and M. A.L. Marques.,  SoftwareX 7, 1–5 (2018) (10.1016/j.softx.2017.11.002)

   => Composite Functional: B3PW91 <= 

    B3PW91 Hyb-GGA Exchange-Correlation Functional

    A. D. Becke.,  J. Chem. Phys. 98, 5648 (1993) (10.1063/1.464913)

    Deriv               =              1
    GGA                 =           TRUE
    Meta                =          FALSE

    Exchange Hybrid     =           TRUE
    MP2 Hybrid          =          FALSE

   => Exchange Functionals <=

    0.0800   Slater exchange
    0.7200         Becke 88

   => Exact (HF) Exchange <=

    0.2000               HF 

   => Correlation Functionals <=

    0.1900    Perdew & Wang
    0.8100   Perdew & Wang 91

   => LibXC Density Thresholds  <==

    XC_HYB_GGA_XC_B3PW91:  1.00E-15 

   => Molecular Quadrature <=

    Radial Scheme          =       TREUTLER
    Pruning Scheme         =           NONE
    Nuclear Scheme         =       TREUTLER

    Blocking Scheme        =         OCTREE
    BS radius alpha        =              1
    Pruning alpha          =              1
    Radial Points          =             75
    Spherical Points       =            302
    Total Points           =          88328
    Total Blocks           =            698
    Max Points             =            256
    Max Functions          =             42
    Weights Tolerance      =       1.00E-15


  -Total Gradient:
     Atom            X                  Y                   Z
    ------   -----------------  -----------------  -----------------
       1       -0.000053528782    -0.000004323249    -0.000014000927
       2        0.000072618892    -0.000096977863     0.000015594817
       3       -0.000072618892     0.000096977863     0.000015594817
       4        0.000053528782     0.000004323249    -0.000014000927


*** tstop() called on Barrys-MacBook-Pro.local at Thu May 30 21:09:10 2024
Module time:
	user time   =       0.63 seconds =       0.01 minutes
	system time =       0.02 seconds =       0.00 minutes
	total time  =          1 seconds =       0.02 minutes
Total time:
	user time   =     999.58 seconds =      16.66 minutes
	system time =      44.19 seconds =       0.74 minutes
	total time  =       1379 seconds =      22.98 minutes

    Psi4 stopped on: Thursday, 30 May 2024 09:09PM
    Psi4 wall time for execution: 0:00:01.07


    -----------------------------------------------------------------------
          Psi4: An Open-Source Ab Initio Electronic Structure Package
                               Psi4 1.9.1 release

                         Git: Rev {} zzzzzzz 


    D. G. A. Smith, L. A. Burns, A. C. Simmonett, R. M. Parrish,
    M. C. Schieber, R. Galvelis, P. Kraus, H. Kruse, R. Di Remigio,
    A. Alenaizan, A. M. James, S. Lehtola, J. P. Misiewicz, M. Scheurer,
    R. A. Shaw, J. B. Schriber, Y. Xie, Z. L. Glick, D. A. Sirianni,
    J. S. O'Brien, J. M. Waldrop, A. Kumar, E. G. Hohenstein,
    B. P. Pritchard, B. R. Brooks, H. F. Schaefer III, A. Yu. Sokolov,
    K. Patkowski, A. E. DePrince III, U. Bozkaya, R. A. King,
    F. A. Evangelista, J. M. Turney, T. D. Crawford, C. D. Sherrill,
    J. Chem. Phys. 152(18) 184108 (2020). https://doi.org/10.1063/5.0006002

                            Additional Code Authors
    E. T. Seidl, C. L. Janssen, E. F. Valeev, M. L. Leininger,
    J. F. Gonthier, R. M. Richard, H. R. McAlexander, M. Saitow, X. Wang,
    P. Verma, M. H. Lechner, A. Jiang, S. Behnle, A. G. Heide,
    M. F. Herbst, and D. L. Poole

             Previous Authors, Complete List of Code Contributors,
                       and Citations for Specific Modules
    https://github.com/psi4/psi4/blob/master/codemeta.json
    https://github.com/psi4/psi4/graphs/contributors
    http://psicode.org/psi4manual/master/introduction.html#citing-psifour

    -----------------------------------------------------------------------


    Psi4 started on: Thursday, 30 May 2024 08:41PM

    Process ID: 56818
    Host:       Barrys-MacBook-Pro.local
    PSIDATADIR: /Users/blink/psi4conda/share/psi4
    Memory:     3.7 GiB
    Threads:    4
    
  ==> Input QCSchema <==

--------------------------------------------------------------------------
{'driver': 'gradient',
 'extras': {'psiapi': True, 'wfn_qcvars_only': True},
 'id': None,
 'keywords': {'ENSURE_BT_CONVERGENCE': 1,
              'FULL_HESS_EVERY': 0,
              'GEOM_MAXITER': 500,
              'G_CONVERGENCE': 'GAU_VERYTIGHT',
              'IRC_DIRECTION': 'FORWARD',
              'IRC_POINTS': 100,
              'IRC_STEP_SIZE': 0.25,
              'NORMAL_MODES_WRITE': 1,
              'OPT_TYPE': 'IRC',
              'PARENT_SYMMETRY': 'C2(z)',
              'REFERENCE': 'RHF',
              'SCF__D_CONVERGENCE': 1e-08,
              'SCF__E_CONVERGENCE': 1e-08,
              'SCF__INTS_TOLERANCE': 1e-12,
              'function_kwargs': {'write_orbitals': False}},
 'model': {'basis': '6-31+g(d)', 'method': 'b3pw91'},
 'molecule': {'atom_labels': ['', '', '', ''],
              'atomic_numbers': [1, 8, 8, 1],
              'extras': {},
              'fix_com': True,
              'fix_orientation': True,
              'fix_symmetry': 'c2(z)',
              'fragment_charges': [0.0],
              'fragment_multiplicities': [1],
              'fragments': [[0, 1, 2, 3]],
              'geometry': [-4.871753503949826e-08, 1.8581283594738383, -1.6376268130782388, 6.620691878044688e-08,
                           1.3712127737715647, 0.13265007511626753, -6.620691878044688e-08, -1.3712127737715647,
                           0.13265007511626753, 4.871753503949826e-08, -1.8581283594738383, -1.6376268130782388],
              'mass_numbers': [1, 16, 16, 1],
              'masses': [1.00782503223, 15.99491461957, 15.99491461957, 1.00782503223],
              'molecular_charge': 0.0,
              'molecular_multiplicity': 1,
              'name': 'H2O2',
              'provenance': {'creator': 'QCElemental',
                             'routine': 'qcelemental.molparse.from_string',
                             'version': '0.27.1'},
              'real': [True, True, True, True],
              'schema_name': 'qcschema_molecule',
              'schema_version': 2,
              'symbols': ['H', 'O', 'O', 'H'],
              'validated': True},
 'protocols': {'stdout': True},
 'provenance': {'creator': 'QCElemental', 'routine': 'qcelemental.models.results', 'version': '0.27.1'},
 'schema_name': 'qcschema_input',
 'schema_version': 1}
--------------------------------------------------------------------------

Scratch directory: /tmp/
gradient() will perform analytic gradient computation.
   => Libint2 <=

    Primary   basis highest AM E, G, H:  5, 4, 3
    Auxiliary basis highest AM E, G, H:  6, 5, 4
    Onebody   basis highest AM E, G, H:  6, 5, 4
    Solid Harmonics ordering:            Gaussian

*** tstart() called on Barrys-MacBook-Pro.local
*** at Thu May 30 21:09:10 2024

   => Loading Basis Set <=

    Name: 6-31+G(D)
    Role: ORBITAL
    Keyword: BASIS
    atoms 1, 4 entry H          line    46 file /Users/blink/psi4conda/share/psi4/basis/6-31pg_d_.gbs 
    atoms 2-3  entry O          line   157 file /Users/blink/psi4conda/share/psi4/basis/6-31pg_d_.gbs 


         ---------------------------------------------------------
                                   SCF
               by Justin Turney, Rob Parrish, Andy Simmonett
                          and Daniel G. A. Smith
                              RKS Reference
                        4 Threads,   3814 MiB Core
         ---------------------------------------------------------

  ==> Geometry <==

    Molecular point group: c2
    Full point group: C2

    Geometry (in Bohr), charge = 0, multiplicity = 1:

       Center              X                  Y                   Z               Mass       
    ------------   -----------------  -----------------  -----------------  -----------------
         H           -0.000000048718     1.858128359474    -1.637626813078     1.007825032230
         O            0.000000066207     1.371212773772     0.132650075116    15.994914619570
         O           -0.000000066207    -1.371212773772     0.132650075116    15.994914619570
         H            0.000000048718    -1.858128359474    -1.637626813078     1.007825032230

  Running in c2 symmetry.

  Rotational constants: A =     10.08622  B =      0.89707  C =      0.82380 [cm^-1]
  Rotational constants: A = 302377.26649  B =  26893.33597  C =  24696.80973 [MHz]
  Nuclear repulsion =   36.665197739744237

  Charge       = 0
  Multiplicity = 1
  Electrons    = 18
  Nalpha       = 9
  Nbeta        = 9

  ==> Algorithm <==

  SCF Algorithm Type is DF.
  DIIS enabled.
  MOM disabled.
  Fractional occupation disabled.
  Guess Type is SAD.
  Energy threshold   = 1.00e-08
  Density threshold  = 1.00e-08
  Integral threshold = 1.00e-12

  ==> Primary Basis <==

  Basis Set: 6-31+G(D)
    Blend: 6-31+G(D)
    Number of shells: 20
    Number of basis functions: 42
    Number of Cartesian functions: 42
    Spherical Harmonics?: false
    Max angular momentum: 2

  ==> DFT Potential <==

   => LibXC <=

    Version 6.2.2
    S. Lehtola, C. Steigemann, M. J.T. Oliveira, and M. A.L. Marques.,  SoftwareX 7, 1–5 (2018) (10.1016/j.softx.2017.11.002)

   => Composite Functional: B3PW91 <= 

    B3PW91 Hyb-GGA Exchange-Correlation Functional

    A. D. Becke.,  J. Chem. Phys. 98, 5648 (1993) (10.1063/1.464913)

    Deriv               =              1
    GGA                 =           TRUE
    Meta                =          FALSE

    Exchange Hybrid     =           TRUE
    MP2 Hybrid          =          FALSE

   => Exchange Functionals <=

    0.0800   Slater exchange
[...]
    atoms 1, 4 entry H          line    46 file /Users/blink/psi4conda/share/psi4/basis/6-31pg_d_.gbs 
    atoms 2-3  entry O          line   157 file /Users/blink/psi4conda/share/psi4/basis/6-31pg_d_.gbs 


         ---------------------------------------------------------
                                   SCF
               by Justin Turney, Rob Parrish, Andy Simmonett
                          and Daniel G. A. Smith
                              RKS Reference
                        4 Threads,   3814 MiB Core
         ---------------------------------------------------------

  ==> Geometry <==

    Molecular point group: c2
    Full point group: C2

    Geometry (in Angstrom), charge = 0, multiplicity = 1:

       Center              X                  Y                   Z               Mass       
    ------------   -----------------  -----------------  -----------------  -----------------
         H           -0.286172606296     1.180344015662    -0.644965971564     1.007825032230
         O            0.346592987324     0.632022271017    -0.151433420754    15.994914619570
         O           -0.346592987324    -0.632022271017    -0.151433420754    15.994914619570
         H            0.286172606296    -1.180344015662    -0.644965971564     1.007825032230

  Running in c2 symmetry.

  Rotational constants: A =      6.03440  B =      0.86032  C =      0.84520 [cm^-1]
  Rotational constants: A = 180906.81842  B =  25791.83119  C =  25338.52789 [MHz]
  Nuclear repulsion =   36.926850347974117

  Charge       = 0
  Multiplicity = 1
  Electrons    = 18
  Nalpha       = 9
  Nbeta        = 9

  ==> Algorithm <==

  SCF Algorithm Type is DF.
  DIIS enabled.
  MOM disabled.
  Fractional occupation disabled.
  Guess Type is READ.
  Energy threshold   = 1.00e-08
  Density threshold  = 1.00e-08
  Integral threshold = 1.00e-12

  ==> Primary Basis <==

  Basis Set: 6-31+G(D)
    Blend: 6-31+G(D)
    Number of shells: 20
    Number of basis functions: 42
    Number of Cartesian functions: 42
    Spherical Harmonics?: false
    Max angular momentum: 2

  ==> DFT Potential <==

   => LibXC <=

    Version 6.2.2
    S. Lehtola, C. Steigemann, M. J.T. Oliveira, and M. A.L. Marques.,  SoftwareX 7, 1–5 (2018) (10.1016/j.softx.2017.11.002)

   => Composite Functional: B3PW91 <= 

    B3PW91 Hyb-GGA Exchange-Correlation Functional

    A. D. Becke.,  J. Chem. Phys. 98, 5648 (1993) (10.1063/1.464913)

    Deriv               =              1
    GGA                 =           TRUE
    Meta                =          FALSE

    Exchange Hybrid     =           TRUE
    MP2 Hybrid          =          FALSE

   => Exchange Functionals <=

    0.0800   Slater exchange
    0.7200         Becke 88

   => Exact (HF) Exchange <=

    0.2000               HF 

   => Correlation Functionals <=

    0.1900    Perdew & Wang
    0.8100   Perdew & Wang 91

   => LibXC Density Thresholds  <==

    XC_HYB_GGA_XC_B3PW91:  1.00E-15 

   => Molecular Quadrature <=

    Radial Scheme          =       TREUTLER
    Pruning Scheme         =           NONE
    Nuclear Scheme         =       TREUTLER

    Blocking Scheme        =         OCTREE
    BS radius alpha        =              1
    Pruning alpha          =              1
    Radial Points          =             75
    Spherical Points       =            302
    Total Points           =          88397
    Total Blocks           =            714
    Max Points             =            252
    Max Functions          =             42
    Weights Tolerance      =       1.00E-15

   => Loading Basis Set <=

    Name: (6-31+G(D) AUX)
    Role: JKFIT
    Keyword: DF_BASIS_SCF
    atoms 1, 4 entry H          line   116 file /Users/blink/psi4conda/share/psi4/basis/heavy-aug-cc-pvdz-jkfit.gbs 
    atoms 2-3  entry O          line   310 file /Users/blink/psi4conda/share/psi4/basis/heavy-aug-cc-pvdz-jkfit.gbs 

   => Loading Basis Set <=

    Name: 6-31+G(D)
    Role: ORBITAL
    Keyword: BASIS
    atoms 1, 4 entry H          line    46 file /Users/blink/psi4conda/share/psi4/basis/6-31pg_d_.gbs 
    atoms 2-3  entry O          line   157 file /Users/blink/psi4conda/share/psi4/basis/6-31pg_d_.gbs 

  Reading orbitals from file /tmp/22_Butane_PES_1.default.56818.180.npy, no projection.

  ==> Integral Setup <==

  DFHelper Memory: AOs need 0.004 GiB; user supplied 2.690 GiB. 
  Using in-core AOs.

  ==> MemDFJK: Density-Fitted J/K Matrices <==

    J tasked:                   Yes
    K tasked:                   Yes
    wK tasked:                   No
    OpenMP threads:               4
    Memory [MiB]:              2754
    Algorithm:                 Core
    Schwarz Cutoff:           1E-12
    Mask sparsity (%):       0.0000
    Fitting Condition:        1E-10

   => Auxiliary Basis Set <=

  Basis Set: (6-31+G(D) AUX)
    Blend: HEAVY-AUG-CC-PVDZ-JKFIT
    Number of shells: 74
    Number of basis functions: 252
    Number of Cartesian functions: 252
    Spherical Harmonics?: false
    Max angular momentum: 3

  Cached 100.0% of DFT collocation blocks in 0.104 [GiB].

  Minimum eigenvalue in the overlap matrix is 3.1498215015E-03.
  Reciprocal condition number of the overlap matrix is 5.7946610203E-04.
    Using symmetric orthogonalization.

  ==> Pre-Iterations <==

  SCF Guess: Orbitals guess was supplied from a previous computation.

   -------------------------------------------------------
    Irrep   Nso     Nmo     Nalpha   Nbeta   Ndocc  Nsocc
   -------------------------------------------------------
     A         21      21       5       5       5       0
     B         21      21       4       4       4       0
   -------------------------------------------------------
    Total      42      42       9       9       9       0
   -------------------------------------------------------

  ==> Iterations <==

                           Total Energy        Delta E     RMS |[F,P]|

   @DF-RKS iter   0:  -151.48747286637536   -1.51487e+02   3.69962e-05 
   @DF-RKS iter   1:  -151.48767955139016   -2.06685e-04   7.35303e-06 DIIS
   @DF-RKS iter   2:  -151.48767956518498   -1.37948e-08   3.73582e-06 DIIS
   @DF-RKS iter   3:  -151.48767956963766   -4.45269e-09   4.91301e-07 DIIS
   @DF-RKS iter   4:  -151.48767956971489   -7.72218e-11   1.58455e-07 DIIS
   @DF-RKS iter   5:  -151.48767956972466   -9.77707e-12   7.35497e-09 DIIS
  Energy and wave function converged.


  ==> Post-Iterations <==

   Electrons on quadrature grid:
      Ntotal   =   17.9999992574 ; deviation = -7.426e-07 

    Orbital Energies [Eh]
    ---------------------

    Doubly Occupied:                                                      

       1A    -19.214640     1B    -19.214562     2A     -1.141998  
       2B     -0.915433     3A     -0.549738     3B     -0.509929  
       4A     -0.435534     5A     -0.337326     4B     -0.289440  

    Virtual:                                                              

       5B      0.000137     6A      0.048381     6B      0.104321  
       7A      0.160542     7B      0.162020     8A      0.193391  
       9A      0.205743     8B      0.214437     9B      0.226258  
      10A      0.291710    10B      0.335548    11B      0.968471  
      11A      0.988698    12B      1.046894    13B      1.070626  
      12A      1.072768    13A      1.139148    14B      1.188724  
      14A      1.203206    15A      1.300519    15B      1.486428  
      16A      1.510045    16B      1.599838    17A      1.660536  
      17B      1.783253    18A      1.967964    19A      2.290857  
      18B      2.327702    19B      2.483604    20A      2.518884  
      20B      3.051954    21A      3.627428    21B      4.031122  

    Final Occupation by Irrep:
              A     B 
    DOCC [     5,    4 ]
    NA   [     5,    4 ]
    NB   [     5,    4 ]

  @DF-RKS Final Energy:  -151.48767956972466

   => Energetics <=

    Nuclear Repulsion Energy =             36.9268503479741170
    One-Electron Energy =                -281.3696674163935540
    Two-Electron Energy =                 107.3009838922352230
    DFT Exchange-Correlation Energy =     -14.3458463935404428
    Empirical Dispersion Energy =           0.0000000000000000
    VV10 Nonlocal Energy =                  0.0000000000000000
    Total Energy =                       -151.4876795697246621

Computation Completed


Properties will be evaluated at   0.000000,   0.000000,   0.000000 [a0]

Properties computed using the SCF density matrix


 Multipole Moments:

 ------------------------------------------------------------------------------------
     Multipole            Electronic (a.u.)      Nuclear  (a.u.)        Total (a.u.)
 ------------------------------------------------------------------------------------

 L = 1.  Multiply by 2.5417464519 to convert [e a0] to [Debye]
 Dipole X            :          0.0000000            0.0000000            0.0000000
 Dipole Y            :          0.0000000           -0.0000000           -0.0000000
 Dipole Z            :          6.2833709           -7.0163012           -0.7329302
 Magnitude           :                                                    0.7329302

 ------------------------------------------------------------------------------------

*** tstop() called on Barrys-MacBook-Pro.local at Thu May 30 21:09:51 2024
Module time:
	user time   =       2.14 seconds =       0.04 minutes
	system time =       0.15 seconds =       0.00 minutes
	total time  =          0 seconds =       0.00 minutes
Total time:
	user time   =    1152.69 seconds =      19.21 minutes
	system time =      52.36 seconds =       0.87 minutes
	total time  =       1420 seconds =      23.67 minutes

*** tstart() called on Barrys-MacBook-Pro.local
*** at Thu May 30 21:09:51 2024


         ------------------------------------------------------------
                                   SCF GRAD                          
                          Rob Parrish, Justin Turney,                
                       Andy Simmonett, and Alex Sokolov              
         ------------------------------------------------------------

  ==> Geometry <==

    Molecular point group: c2
    Full point group: C2

    Geometry (in Angstrom), charge = 0, multiplicity = 1:

       Center              X                  Y                   Z               Mass       
    ------------   -----------------  -----------------  -----------------  -----------------
         H           -0.286172606296     1.180344015662    -0.644965971564     1.007825032230
         O            0.346592987324     0.632022271017    -0.151433420754    15.994914619570
         O           -0.346592987324    -0.632022271017    -0.151433420754    15.994914619570
         H            0.286172606296    -1.180344015662    -0.644965971564     1.007825032230

  Nuclear repulsion =   36.926850347974117

  ==> Basis Set <==

  Basis Set: 6-31+G(D)
    Blend: 6-31+G(D)
    Number of shells: 20
    Number of basis functions: 42
    Number of Cartesian functions: 42
    Spherical Harmonics?: false
    Max angular momentum: 2

  ==> DFJKGrad: Density-Fitted SCF Gradients <==

    Gradient:                    1
    J tasked:                  Yes
    K tasked:                  Yes
    wK tasked:                  No
    OpenMP threads:              4
    Integrals threads:           4
    Memory [MiB]:             2861
    Schwarz Cutoff:          1E-12
    Fitting Condition:       1E-10

   => Auxiliary Basis Set <=

  Basis Set: (6-31+G(D) AUX)
    Blend: HEAVY-AUG-CC-PVDZ-JKFIT
    Number of shells: 74
    Number of basis functions: 252
    Number of Cartesian functions: 252
    Spherical Harmonics?: false
    Max angular momentum: 3

  ==> DFT Potential <==

   => LibXC <=

    Version 6.2.2
    S. Lehtola, C. Steigemann, M. J.T. Oliveira, and M. A.L. Marques.,  SoftwareX 7, 1–5 (2018) (10.1016/j.softx.2017.11.002)

   => Composite Functional: B3PW91 <= 

    B3PW91 Hyb-GGA Exchange-Correlation Functional

    A. D. Becke.,  J. Chem. Phys. 98, 5648 (1993) (10.1063/1.464913)

    Deriv               =              1
    GGA                 =           TRUE
    Meta                =          FALSE

    Exchange Hybrid     =           TRUE
    MP2 Hybrid          =          FALSE

   => Exchange Functionals <=

    0.0800   Slater exchange
    0.7200         Becke 88

   => Exact (HF) Exchange <=

    0.2000               HF 

   => Correlation Functionals <=

    0.1900    Perdew & Wang
    0.8100   Perdew & Wang 91

   => LibXC Density Thresholds  <==

    XC_HYB_GGA_XC_B3PW91:  1.00E-15 

   => Molecular Quadrature <=

    Radial Scheme          =       TREUTLER
    Pruning Scheme         =           NONE
    Nuclear Scheme         =       TREUTLER

    Blocking Scheme        =         OCTREE
    BS radius alpha        =              1
    Pruning alpha          =              1
    Radial Points          =             75
    Spherical Points       =            302
    Total Points           =          88397
    Total Blocks           =            714
    Max Points             =            252
    Max Functions          =             42
    Weights Tolerance      =       1.00E-15


  -Total Gradient:
     Atom            X                  Y                   Z
    ------   -----------------  -----------------  -----------------
       1       -0.000033961613     0.000020093170     0.000059692910
       2        0.000048840779    -0.000005513527    -0.000062247067
       3       -0.000048840779     0.000005513527    -0.000062247067
       4        0.000033961613    -0.000020093170     0.000059692910


*** tstop() called on Barrys-MacBook-Pro.local at Thu May 30 21:09:52 2024
Module time:
	user time   =       0.66 seconds =       0.01 minutes
	system time =       0.03 seconds =       0.00 minutes
	total time  =          1 seconds =       0.02 minutes
Total time:
	user time   =    1153.36 seconds =      19.22 minutes
	system time =      52.39 seconds =       0.87 minutes
	total time  =       1421 seconds =      23.68 minutes

    			-----------------------------------------

    			 OPTKING 3.0: for geometry optimizations 

    			     By R.A. King, Bethel University     

    			        with contributions from          

    			    A.V. Copan, J. Cayton, A. Heide      

    			-----------------------------------------

    
	                            ===> Fragment 1 <== 

	 Z (Atomic Numbers)          Masses                          Geom                  
	       1.000000             1.007825         -0.54078785  2.23052692 -1.21880905   
	       8.000000            15.994915          0.65496582  1.19434900 -0.28616769   
	       8.000000            15.994915         -0.65496582 -1.19434900 -0.28616769   
	       1.000000             1.007825          0.54078785 -2.23052692 -1.21880905   

	 - Coordinate -           - BOHR/RAD -       - ANG/DEG -
	 R(1,2)           =         1.836658           0.971917
	 R(2,3)           =         2.724298           1.441636
	 R(3,4)           =         1.836658           0.971917
	 B(1,2,3)         =         1.753431         100.464207
	 B(2,3,4)         =         1.753431         100.464207
	 D(1,2,3,4)       =         2.056354         117.820404


	        --- Internal Coordinate Step in ANG or DEG, aJ/ANG or AJ/DEG ---
	-------------------------------------------------------------------------------
	           Coordinate      Previous         Force          Change          New 
	           ----------      --------        ------          ------        ------
	               R(1,2)       0.97192       -0.00002       -0.00000       0.97191
	               R(2,3)       1.44164       -0.00017        0.00001       1.44164
	               R(3,4)       0.97192       -0.00002       -0.00000       0.97191
	             B(1,2,3)     100.46421       -0.00000       -0.00196     100.46225
	             B(2,3,4)     100.46421       -0.00000       -0.00196     100.46225
	           D(1,2,3,4)     117.82040       -0.00001        0.00001     117.82042
	-------------------------------------------------------------------------------

@IRC ----------------------------------------------
@IRC            ****      IRC Report      ****
@IRC ----------------------------------------------
@IRC  Step    Energy              Change in Energy 
@IRC ----------------------------------------------
@IRC    0  -151.472787072219   -151.472787072219
@IRC    1  -151.473277775668     -0.000490703450
@IRC    2  -151.474662102313     -0.001384326645
@IRC    3  -151.476710706266     -0.002048603953
@IRC    4  -151.479118104358     -0.002407398092
@IRC    5  -151.481570663421     -0.002452559063
@IRC    6  -151.483795203793     -0.002224540372
@IRC    7  -151.485586763689     -0.001791559896
@IRC    8  -151.486827871968     -0.001241108279
@IRC    9  -151.487501024380     -0.000673152411
@IRC ----------------------------------------------

@IRC -----------------------------------------------------
@IRC              ****     IRC Steps     ****             
@IRC -----------------------------------------------------
@IRC        |          Distance         |
@IRC Step   | Step    Arc       Line    |    Coord   0    Coord   1    Coord   2    Coord   3
@IRC ------------------------------------------------------------------------------------------
@IRC    0      0.00   0.00000    0.00000      1.83695647   2.74242555   1.83695647   1.84105804
@IRC    1      0.25   0.24999    0.22918      1.83720575   2.74181448   1.83720575   1.83930939
@IRC    2      0.50   0.49998    0.45815      1.83791118   2.73966542   1.83791118   1.83427365
@IRC    3      0.75   0.74997    0.68665      1.83882142   2.73594213   1.83882142   1.82653654
@IRC    4      1.00   0.99997    0.91453      1.83963028   2.73112075   1.83963028   1.81688609
@IRC    5      1.25   1.24997    1.14178      1.84009539   2.72572661   1.84009539   1.80615898
@IRC    6      1.50   1.49997    1.36849      1.84006201   2.72057748   1.84006201   1.79509676
@IRC    7      1.75   1.74996    1.59479      1.83955002   2.71681416   1.83955002   1.78416389
@IRC    8      2.00   1.99996    1.82074      1.83867446   2.71581240   1.83867446   1.77353751
@IRC    9      2.25   2.24995    2.04624      1.83764424   2.71857561   1.83764424   1.76322609
@IRC ------------------------------------------------------------------------------------------
@IRC         |          Distance         |
@IRC  Step   | Step    Arc       Line    |    Coord   4    Coord   5
@IRC ----------------------------------------------------------------
@IRC    0      0.00   0.00000    0.00000      1.84105804   0.00000000
@IRC    1      0.25   0.24999    0.22918      1.83930939   0.21001473
@IRC    2      0.50   0.49998    0.45815      1.83427365   0.41939415
@IRC    3      0.75   0.74997    0.68665      1.82653654   0.62765854
@IRC    4      1.00   0.99997    0.91453      1.81688609   0.83460615
@IRC    5      1.25   1.24997    1.14178      1.80615898   1.04028788
@IRC    6      1.50   1.49997    1.36849      1.79509676   1.24494460
@IRC    7      1.75   1.74996    1.59479      1.78416389   1.44885817
@IRC    8      2.00   1.99996    1.82074      1.77353751   1.65216256
@IRC    9      2.25   2.24995    2.04624      1.76322609   1.85470454
@IRC ----------------------------------------------------------------

Next Geometry in Ang 
	Fragment 1 (Ang)

	    H  -0.2861733306   1.1803231110  -0.6449666226
	    O   0.3466031214   0.6320210238  -0.1514327697
	    O  -0.3466031214  -0.6320210238  -0.1514327697
	    H   0.2861733306  -1.1803231110  -0.6449666226


    Final optimized geometry and variables:
    Molecular point group: c2
    Full point group: C2

    Geometry (in Angstrom), charge = 0, multiplicity = 1:

    H           -0.286172606296     1.180344015662    -0.644965971564
    O            0.346592987324     0.632022271017    -0.151433420754
    O           -0.346592987324    -0.632022271017    -0.151433420754
    H            0.286172606296    -1.180344015662    -0.644965971564

