[Molden Format]

[FREQ]
        -648.8509320182
         962.4165981220
        1354.3645175019
        1460.9059740098
        3710.6064635843
        3754.2498266039

[FR-COORD]
H         -0.0000000487        1.8616501412       -1.6376268131
O          0.0000000662        1.3712127738        0.1326500751
O         -0.0000000662       -1.3712127738        0.1326500751
H          0.0000000487       -1.8616501412       -1.6376268131

[FR-NORM-COORD]
vibration 1
           0.7045335891       -0.0000014315        0.0000008748
          -0.0602695759        0.0000008225       -0.0000000551
           0.0602695759       -0.0000008225       -0.0000000551
          -0.7045335891        0.0000014315        0.0000008748
vibration 2
          -0.0000108763        0.0519009034       -0.1962504309
           0.0000009630        0.6772290287        0.0123655613
          -0.0000009630       -0.6772290287        0.0123655613
           0.0000108763       -0.0519009034       -0.1962504309
vibration 3
           0.0000010598        0.6879026499        0.1633523250
          -0.0000000922       -0.0001511764       -0.0102926815
           0.0000000922        0.0001511764       -0.0102926815
          -0.0000010598       -0.6879026499        0.1633523250
vibration 4
           0.0000000430        0.6918913832        0.1221965877
          -0.0000000027       -0.0435954472       -0.0667363826
          -0.0000000027       -0.0435954472        0.0667363826
           0.0000000430        0.6918913832       -0.1221965877
vibration 5
           0.0000000449       -0.1769214274        0.6831065865
          -0.0000000028        0.0111476583       -0.0440446335
          -0.0000000028        0.0111476583        0.0440446335
           0.0000000449       -0.1769214274       -0.6831065865
vibration 6
          -0.0000013564       -0.1726612624        0.6842005147
           0.0000001171        0.0141137705       -0.0431108526
          -0.0000001171       -0.0141137705       -0.0431108526
           0.0000013564        0.1726612624        0.6842005147
