[Molden Format]

[FREQ]
        -944.9230467387
        -641.3313884771
        -271.2687453937
        -194.2757014414
        1092.2488429137
        1289.1881202540
        1420.1791347562
        4055.4208772336
        4098.4810777256

[FR-COORD]
H         -0.0000000000        1.8525987396       -1.6061807256
O         -0.0000000000        1.3206436421        0.1012039876
O          0.0000000000       -1.3206436421        0.1012039876
H          0.0000000000       -1.8525987396       -1.6061807256

[FR-NORM-COORD]
vibration 1
           0.7047619076       -0.0000001375       -0.0000000383
          -0.0575382797        0.0000000130        0.0000000024
           0.0575382797       -0.0000000130        0.0000000024
          -0.7047619076        0.0000001375       -0.0000000383
vibration 2
           0.7057072885       -0.0000011382       -0.0000007461
          -0.0444659748        0.0000000717       -0.0000003420
          -0.0444659748        0.0000000717        0.0000003420
           0.7057072885       -0.0000011382        0.0000007461
vibration 3
           0.0000034044        0.4443866720        0.4541684809
          -0.0000002145       -0.0280004003        0.3089780806
          -0.0000002145       -0.0280004003       -0.3089780806
           0.0000034044        0.4443866720       -0.4541684809
vibration 4
           0.5597817372        0.0000020562       -0.0000005590
           0.4320236182       -0.0000011533        0.0000000352
          -0.4320236182        0.0000011533        0.0000000352
          -0.5597817372       -0.0000020562       -0.0000005590
vibration 5
           0.0000013925       -0.4405363513       -0.2832130090
           0.0000012613        0.4747627522        0.0178449943
          -0.0000012613       -0.4747627522        0.0178449943
          -0.0000013925        0.4405363513       -0.2832130090
vibration 6
           0.0000000405        0.6845658409        0.1704718846
          -0.0000000688        0.0468355744       -0.0107412785
           0.0000000688       -0.0468355744       -0.0107412785
          -0.0000000405       -0.6845658409        0.1704718846
vibration 7
           0.0000006745        0.6876248986        0.1380218010
          -0.0000000425       -0.0433266199       -0.0790239537
          -0.0000000425       -0.0433266199        0.0790239537
           0.0000006745        0.6876248986       -0.1380218010
vibration 8
           0.0000000346       -0.2017890805        0.6762057171
          -0.0000000022        0.0127145466       -0.0431895295
          -0.0000000022        0.0127145466        0.0431895295
           0.0000000346       -0.2017890805       -0.6762057171
vibration 9
           0.0000001832       -0.1963547216        0.6777740392
           0.0000001443        0.0156006062       -0.0427059262
          -0.0000001443       -0.0156006062       -0.0427059262
          -0.0000001832        0.1963547216        0.6777740392
