
    -----------------------------------------------------------------------
          Psi4: An Open-Source Ab Initio Electronic Structure Package
                               Psi4 1.9.1 release

                         Git: Rev {} zzzzzzz 


    D. G. A. Smith, L. A. Burns, A. C. Simmonett, R. M. Parrish,
    M. C. Schieber, R. Galvelis, P. Kraus, H. Kruse, R. Di Remigio,
    A. Alenaizan, A. M. James, S. Lehtola, J. P. Misiewicz, M. Scheurer,
    R. A. Shaw, J. B. Schriber, Y. Xie, Z. L. Glick, D. A. Sirianni,
    J. S. O'Brien, J. M. Waldrop, A. Kumar, E. G. Hohenstein,
    B. P. Pritchard, B. R. Brooks, H. F. Schaefer III, A. Yu. Sokolov,
    K. Patkowski, A. E. DePrince III, U. Bozkaya, R. A. King,
    F. A. Evangelista, J. M. Turney, T. D. Crawford, C. D. Sherrill,
    J. Chem. Phys. 152(18) 184108 (2020). https://doi.org/10.1063/5.0006002

                            Additional Code Authors
    E. T. Seidl, C. L. Janssen, E. F. Valeev, M. L. Leininger,
    J. F. Gonthier, R. M. Richard, H. R. McAlexander, M. Saitow, X. Wang,
    P. Verma, M. H. Lechner, A. Jiang, S. Behnle, A. G. Heide,
    M. F. Herbst, and D. L. Poole

             Previous Authors, Complete List of Code Contributors,
                       and Citations for Specific Modules
    https://github.com/psi4/psi4/blob/master/codemeta.json
    https://github.com/psi4/psi4/graphs/contributors
    http://psicode.org/psi4manual/master/introduction.html#citing-psifour

    -----------------------------------------------------------------------


    Psi4 started on: Thursday, 30 May 2024 09:13PM

    Process ID: 56957
    Host:       Barrys-MacBook-Pro.local
    PSIDATADIR: /Users/blink/psi4conda/share/psi4
    Memory:     3.7 GiB
    Threads:    4
      Threads set to 4 by Python driver.

Scratch directory: /tmp/
gradient() will perform analytic gradient computation.
   => Libint2 <=

    Primary   basis highest AM E, G, H:  5, 4, 3
    Auxiliary basis highest AM E, G, H:  6, 5, 4
    Onebody   basis highest AM E, G, H:  6, 5, 4
    Solid Harmonics ordering:            Gaussian

*** tstart() called on Barrys-MacBook-Pro.local
*** at Thu May 30 21:24:42 2024

   => Loading Basis Set <=

    Name: 6-31+G(D)
    Role: ORBITAL
    Keyword: BASIS
    atoms 1-4  entry C          line   119 file /Users/blink/psi4conda/share/psi4/basis/6-31pg_d_.gbs 
    atoms 5-10 entry H          line    46 file /Users/blink/psi4conda/share/psi4/basis/6-31pg_d_.gbs 


         ---------------------------------------------------------
                                   SCF
               by Justin Turney, Rob Parrish, Andy Simmonett
                          and Daniel G. A. Smith
                              RKS Reference
                        4 Threads,   3814 MiB Core
         ---------------------------------------------------------

  ==> Geometry <==

    Molecular point group: c2
    Full point group: C2

    Geometry (in Angstrom), charge = 0, multiplicity = 1:

       Center              X                  Y                   Z               Mass       
    ------------   -----------------  -----------------  -----------------  -----------------
         C            1.040367262789     0.254948681623    -0.647649521617    12.000000000000
         C            0.689615804587    -0.000080127536     0.707948283877    12.000000000000
         C           -0.689615804587     0.000080127536     0.707948283877    12.000000000000
         C           -1.040367262789    -0.254948681623    -0.647649521617    12.000000000000
         H            1.923760430015    -0.185291213587    -1.124129828000     1.007825032230
         H            0.711064264944     1.180009153361    -1.108851381917     1.007825032230
         H            1.381680979838    -0.238800940022     1.514712037343     1.007825032230
         H           -1.381680979838     0.238800940022     1.514712037343     1.007825032230
         H           -1.923760430015     0.185291213587    -1.124129828000     1.007825032230
         H           -0.711064264944    -1.180009153361    -1.108851381917     1.007825032230

  Running in c2 symmetry.

  Rotational constants: A =      0.47713  B =      0.31064  C =      0.20451 [cm^-1]
  Rotational constants: A =  14304.04998  B =   9312.67005  C =   6131.18644 [MHz]
  Nuclear repulsion =  109.667746560645710

  Charge       = 0
  Multiplicity = 1
  Electrons    = 30
  Nalpha       = 15
  Nbeta        = 15

  ==> Algorithm <==

  SCF Algorithm Type is DF.
  DIIS enabled.
  MOM disabled.
  Fractional occupation disabled.
  Guess Type is SAD.
  Energy threshold   = 1.00e-08
  Density threshold  = 1.00e-08
  Integral threshold = 1.00e-12

  ==> Primary Basis <==

  Basis Set: 6-31+G(D)
    Blend: 6-31+G(D)
    Number of shells: 44
    Number of basis functions: 88
    Number of Cartesian functions: 88
    Spherical Harmonics?: false
    Max angular momentum: 2

  ==> DFT Potential <==

   => LibXC <=

    Version 6.2.2
    S. Lehtola, C. Steigemann, M. J.T. Oliveira, and M. A.L. Marques.,  SoftwareX 7, 1–5 (2018) (10.1016/j.softx.2017.11.002)

   => Composite Functional: B3PW91 <= 

    B3PW91 Hyb-GGA Exchange-Correlation Functional

    A. D. Becke.,  J. Chem. Phys. 98, 5648 (1993) (10.1063/1.464913)

    Deriv               =              1
    GGA                 =           TRUE
    Meta                =          FALSE

    Exchange Hybrid     =           TRUE
    MP2 Hybrid          =          FALSE

   => Exchange Functionals <=

    0.0800   Slater exchange
    0.7200         Becke 88

   => Exact (HF) Exchange <=

    0.2000               HF 

   => Correlation Functionals <=

    0.1900    Perdew & Wang
    0.8100   Perdew & Wang 91

   => LibXC Density Thresholds  <==

    XC_HYB_GGA_XC_B3PW91:  1.00E-15 

   => Molecular Quadrature <=

    Radial Scheme          =       TREUTLER
    Pruning Scheme         =           NONE
    Nuclear Scheme         =       TREUTLER

    Blocking Scheme        =         OCTREE
    BS radius alpha        =              1
    Pruning alpha          =              1
    Radial Points          =             75
    Spherical Points       =            302
    Total Points           =         216014
    Total Blocks           =           1654
    Max Points             =            256
    Max Functions          =             88
    Weights Tolerance      =       1.00E-15

   => Loading Basis Set <=

    Name: (6-31+G(D) AUX)
    Role: JKFIT
    Keyword: DF_BASIS_SCF
    atoms 1-4  entry C          line   194 file /Users/blink/psi4conda/share/psi4/basis/heavy-aug-cc-pvdz-jkfit.gbs 
    atoms 5-10 entry H          line   116 file /Users/blink/psi4conda/share/psi4/basis/heavy-aug-cc-pvdz-jkfit.gbs 

  ==> Integral Setup <==

  DFHelper Memory: AOs need 0.036 GiB; user supplied 2.277 GiB. 
  Using in-core AOs.

  ==> MemDFJK: Density-Fitted J/K Matrices <==

    J tasked:                   Yes
    K tasked:                   Yes
    wK tasked:                   No
    OpenMP threads:               4
    Memory [MiB]:              2331
    Algorithm:                 Core
    Schwarz Cutoff:           1E-12
    Mask sparsity (%):       0.0517
    Fitting Condition:        1E-10

   => Auxiliary Basis Set <=

  Basis Set: (6-31+G(D) AUX)
    Blend: HEAVY-AUG-CC-PVDZ-JKFIT
    Number of shells: 166
    Number of basis functions: 554
    Number of Cartesian functions: 554
    Spherical Harmonics?: false
    Max angular momentum: 3

  Cached 100.0% of DFT collocation blocks in 0.517 [GiB].

  Minimum eigenvalue in the overlap matrix is 1.9189597526E-04.
  Reciprocal condition number of the overlap matrix is 2.3244761919E-05.
    Using symmetric orthogonalization.

  ==> Pre-Iterations <==

  SCF Guess: Superposition of Atomic Densities via on-the-fly atomic UHF (no occupation information).

   -------------------------
    Irrep   Nso     Nmo    
   -------------------------
     A         44      44 
     B         44      44 
   -------------------------
    Total      88      88
   -------------------------

  ==> Iterations <==

                           Total Energy        Delta E     RMS |[F,P]|

   @DF-RKS iter SAD:  -155.23674256459503   -1.55237e+02   0.00000e+00 
   @DF-RKS iter   1:  -155.43859179103399   -2.01849e-01   1.39635e-02 DIIS/ADIIS
   @DF-RKS iter   2:  -155.06989458292949    3.68697e-01   1.87855e-02 DIIS/ADIIS
   @DF-RKS iter   3:  -155.86228305850213   -7.92388e-01   9.11467e-04 DIIS/ADIIS
   @DF-RKS iter   4:  -155.86227185055381    1.12079e-05   8.88853e-04 DIIS/ADIIS
   @DF-RKS iter   5:  -155.86377471111857   -1.50286e-03   2.23536e-04 DIIS/ADIIS
   @DF-RKS iter   6:  -155.86388025681049   -1.05546e-04   2.22414e-05 DIIS
   @DF-RKS iter   7:  -155.86388142989318   -1.17308e-06   2.23871e-06 DIIS
   @DF-RKS iter   8:  -155.86388144530414   -1.54110e-08   3.67317e-07 DIIS
   @DF-RKS iter   9:  -155.86388144588744   -5.83299e-10   5.09860e-08 DIIS
   @DF-RKS iter  10:  -155.86388144590839   -2.09468e-11   1.27769e-08 DIIS
   @DF-RKS iter  11:  -155.86388144590887   -4.83169e-13   1.51331e-09 DIIS
  Energy and wave function converged.


  ==> Post-Iterations <==

   Electrons on quadrature grid:
      Ntotal   =   29.9999735992 ; deviation = -2.640e-05 

    Orbital Energies [Eh]
    ---------------------

    Doubly Occupied:                                                      

       1A    -10.194838     1B    -10.194828     2A    -10.179875  
       2B    -10.179247     3A     -0.839845     3B     -0.692059  
       4A     -0.633682     4B     -0.535559     5A     -0.496091  
       5B     -0.441480     6A     -0.422939     6B     -0.377901  
       7A     -0.371439     7B     -0.248707     8A     -0.248636  

    Virtual:                                                              

       8B     -0.031324     9A      0.004695    10A      0.031771  
      11A      0.038279     9B      0.047409    10B      0.057151  
      11B      0.074027    12A      0.083976    13A      0.099443  
      14A      0.101726    12B      0.102298    15A      0.124710  
      13B      0.139837    16A      0.152961    14B      0.154335  
      15B      0.172585    17A      0.179444    16B      0.180978  
      18A      0.221540    17B      0.242669    18B      0.267144  
      19A      0.272447    19B      0.284661    20A      0.306373  
      21A      0.317884    20B      0.361022    21B      0.437178  
      22A      0.598607    22B      0.668377    23A      0.688346  
      23B      0.692927    24A      0.705732    24B      0.735055  
      25A      0.740312    25B      0.742240    26A      0.760478  
      26B      0.841751    27A      0.870427    27B      0.891388  
      28A      0.944093    29A      0.978921    28B      0.987442  
      29B      1.039716    30A      1.063269    30B      1.099717  
      31A      1.112102    31B      1.142066    32A      1.162461  
      32B      1.265372    33A      1.475325    33B      1.490113  
      34A      1.738585    34B      1.786809    35A      1.854491  
      35B      1.862400    36A      1.931376    36B      2.040734  
      37B      2.057149    37A      2.064953    38A      2.147309  
      38B      2.165545    39A      2.205974    39B      2.404023  
      40A      2.468615    41A      2.522390    40B      2.571583  
      42A      2.657209    41B      2.831421    42B      2.919069  
      43B      4.215484    43A      4.223204    44A      4.298467  
      44B      4.469354  

    Final Occupation by Irrep:
              A     B 
    DOCC [     8,    7 ]
    NA   [     8,    7 ]
    NB   [     8,    7 ]

  @DF-RKS Final Energy:  -155.86388144590887

   => Energetics <=

    Nuclear Repulsion Energy =            109.6677465606457105
    One-Electron Energy =                -425.1879376354443707
    Two-Electron Energy =                 178.8758297810088038
    DFT Exchange-Correlation Energy =     -19.2195201521190100
    Empirical Dispersion Energy =           0.0000000000000000
    VV10 Nonlocal Energy =                  0.0000000000000000
    Total Energy =                       -155.8638814459088735

Computation Completed


Properties will be evaluated at   0.000000,   0.000000,   0.000000 [a0]

Properties computed using the SCF density matrix


 Multipole Moments:

 ------------------------------------------------------------------------------------
     Multipole            Electronic (a.u.)      Nuclear  (a.u.)        Total (a.u.)
 ------------------------------------------------------------------------------------

 L = 1.  Multiply by 2.5417464519 to convert [e a0] to [Debye]
 Dipole X            :          0.0000000           -0.0000000           -0.0000000
 Dipole Y            :          0.0000000            0.0000000            0.0000000
 Dipole Z            :          1.2414247           -1.3472863           -0.1058616
 Magnitude           :                                                    0.1058616

 ------------------------------------------------------------------------------------

*** tstop() called on Barrys-MacBook-Pro.local at Thu May 30 21:24:45 2024
Module time:
	user time   =      12.06 seconds =       0.20 minutes
	system time =       0.65 seconds =       0.01 minutes
	total time  =          3 seconds =       0.05 minutes
Total time:
	user time   =     654.79 seconds =      10.91 minutes
	system time =      29.87 seconds =       0.50 minutes
	total time  =        582 seconds =       9.70 minutes

*** tstart() called on Barrys-MacBook-Pro.local
*** at Thu May 30 21:24:45 2024


         ------------------------------------------------------------
                                   SCF GRAD                          
                          Rob Parrish, Justin Turney,                
                       Andy Simmonett, and Alex Sokolov              
         ------------------------------------------------------------

  ==> Geometry <==

    Molecular point group: c2
    Full point group: C2

    Geometry (in Angstrom), charge = 0, multiplicity = 1:

       Center              X                  Y                   Z               Mass       
    ------------   -----------------  -----------------  -----------------  -----------------
         C            1.040367262789     0.254948681623    -0.647649521617    12.000000000000
         C            0.689615804587    -0.000080127536     0.707948283877    12.000000000000
         C           -0.689615804587     0.000080127536     0.707948283877    12.000000000000
         C           -1.040367262789    -0.254948681623    -0.647649521617    12.000000000000
         H            1.923760430015    -0.185291213587    -1.124129828000     1.007825032230
         H            0.711064264944     1.180009153361    -1.108851381917     1.007825032230
         H            1.381680979838    -0.238800940022     1.514712037343     1.007825032230
         H           -1.381680979838     0.238800940022     1.514712037343     1.007825032230
         H           -1.923760430015     0.185291213587    -1.124129828000     1.007825032230
         H           -0.711064264944    -1.180009153361    -1.108851381917     1.007825032230

  Nuclear repulsion =  109.667746560645725

  ==> Basis Set <==

  Basis Set: 6-31+G(D)
    Blend: 6-31+G(D)
    Number of shells: 44
    Number of basis functions: 88
    Number of Cartesian functions: 88
    Spherical Harmonics?: false
    Max angular momentum: 2

  ==> DFJKGrad: Density-Fitted SCF Gradients <==

    Gradient:                    1
    J tasked:                  Yes
    K tasked:                  Yes
    wK tasked:                  No
    OpenMP threads:              4
    Integrals threads:           4
    Memory [MiB]:             2861
    Schwarz Cutoff:          1E-12
    Fitting Condition:       1E-10

   => Auxiliary Basis Set <=

  Basis Set: (6-31+G(D) AUX)
    Blend: HEAVY-AUG-CC-PVDZ-JKFIT
    Number of shells: 166
    Number of basis functions: 554
    Number of Cartesian functions: 554
    Spherical Harmonics?: false
    Max angular momentum: 3

  ==> DFT Potential <==

   => LibXC <=

    Version 6.2.2
    S. Lehtola, C. Steigemann, M. J.T. Oliveira, and M. A.L. Marques.,  SoftwareX 7, 1–5 (2018) (10.1016/j.softx.2017.11.002)

   => Composite Functional: B3PW91 <= 

    B3PW91 Hyb-GGA Exchange-Correlation Functional

    A. D. Becke.,  J. Chem. Phys. 98, 5648 (1993) (10.1063/1.464913)

    Deriv               =              1
    GGA                 =           TRUE
    Meta                =          FALSE

    Exchange Hybrid     =           TRUE
    MP2 Hybrid          =          FALSE

   => Exchange Functionals <=

    0.0800   Slater exchange
    0.7200         Becke 88

   => Exact (HF) Exchange <=

    0.2000               HF 

   => Correlation Functionals <=

    0.1900    Perdew & Wang
    0.8100   Perdew & Wang 91

   => LibXC Density Thresholds  <==

    XC_HYB_GGA_XC_B3PW91:  1.00E-15 

   => Molecular Quadrature <=

    Radial Scheme          =       TREUTLER
    Pruning Scheme         =           NONE
    Nuclear Scheme         =       TREUTLER

    Blocking Scheme        =         OCTREE
    BS radius alpha        =              1
    Pruning alpha          =              1
    Radial Points          =             75
    Spherical Points       =            302
    Total Points           =         216014
    Total Blocks           =           1654
    Max Points             =            256
    Max Functions          =             88
    Weights Tolerance      =       1.00E-15


  -Total Gradient:
     Atom            X                  Y                   Z
    ------   -----------------  -----------------  -----------------
       1        0.000000095848     0.000000188684     0.000000775390
       2       -0.000000343853    -0.000000501038     0.000001091414
       3        0.000000343853     0.000000501038     0.000001091414
       4       -0.000000095848    -0.000000188684     0.000000775390
       5       -0.000000272167    -0.000000019272     0.000000993186
       6        0.000000267819    -0.000000371958     0.000000953470
       7       -0.000000531001     0.000000015235     0.000000384824
       8        0.000000531001    -0.000000015235     0.000000384824
       9        0.000000272167     0.000000019272     0.000000993186
      10       -0.000000267819     0.000000371958     0.000000953470


*** tstop() called on Barrys-MacBook-Pro.local at Thu May 30 21:24:46 2024
Module time:
	user time   =       3.17 seconds =       0.05 minutes
	system time =       0.09 seconds =       0.00 minutes
	total time  =          1 seconds =       0.02 minutes
Total time:
	user time   =     657.96 seconds =      10.97 minutes
	system time =      29.96 seconds =       0.50 minutes
	total time  =        583 seconds =       9.72 minutes

         ----------------------------------------------------------
                                   FINDIF
                     R. A. King and Jonathon Misiewicz
         ----------------------------------------------------------

  Using finite-differences of gradients to determine vibrational frequencies and 
  normal modes. Resulting frequencies are only valid at stationary points.
    Generating geometries for use with 3-point formula.
    Displacement size will be 5.00e-03.
    Number of atoms is 10.
    Number of irreps is 2.
    Number of SALCs is 24.
    Translations projected? 1. Rotations projected? 1.
    Index of SALCs per irrep:
      1 :  0  1  2  3  4  5  6  7  8  9  10  11  12 
      2 :  13  14  15  16  17  18  19  20  21  22  23 
    Number of SALCs per irrep:
      Irrep 1: 13
      Irrep 2: 11
    Number of geometries (including reference) is 38.
    Number of displacements per irrep:
      Irrep 1: 26
      Irrep 2: 11
 38 displacements needed ...

  //>>>>>>>>>>>>>>>>>>>>>>>>>>>>>>>>>>>//
  //    FiniteDifference Computations  //
  //<<<<<<<<<<<<<<<<<<<<<<<<<<<<<<<<<<<//


    -----------------------------------------------------------------------
          Psi4: An Open-Source Ab Initio Electronic Structure Package
                               Psi4 1.9.1 release

                         Git: Rev {} zzzzzzz 


    D. G. A. Smith, L. A. Burns, A. C. Simmonett, R. M. Parrish,
    M. C. Schieber, R. Galvelis, P. Kraus, H. Kruse, R. Di Remigio,
    A. Alenaizan, A. M. James, S. Lehtola, J. P. Misiewicz, M. Scheurer,
    R. A. Shaw, J. B. Schriber, Y. Xie, Z. L. Glick, D. A. Sirianni,
    J. S. O'Brien, J. M. Waldrop, A. Kumar, E. G. Hohenstein,
    B. P. Pritchard, B. R. Brooks, H. F. Schaefer III, A. Yu. Sokolov,
    K. Patkowski, A. E. DePrince III, U. Bozkaya, R. A. King,
    F. A. Evangelista, J. M. Turney, T. D. Crawford, C. D. Sherrill,
    J. Chem. Phys. 152(18) 184108 (2020). https://doi.org/10.1063/5.0006002

                            Additional Code Authors
    E. T. Seidl, C. L. Janssen, E. F. Valeev, M. L. Leininger,
    J. F. Gonthier, R. M. Richard, H. R. McAlexander, M. Saitow, X. Wang,
    P. Verma, M. H. Lechner, A. Jiang, S. Behnle, A. G. Heide,
    M. F. Herbst, and D. L. Poole

             Previous Authors, Complete List of Code Contributors,
                       and Citations for Specific Modules
    https://github.com/psi4/psi4/blob/master/codemeta.json
    https://github.com/psi4/psi4/graphs/contributors
    http://psicode.org/psi4manual/master/introduction.html#citing-psifour

    -----------------------------------------------------------------------


    Psi4 started on: Thursday, 30 May 2024 09:13PM

    Process ID: 56957
    Host:       Barrys-MacBook-Pro.local
    PSIDATADIR: /Users/blink/psi4conda/share/psi4
    Memory:     3.7 GiB
    Threads:    4
    
  ==> Input QCSchema <==

--------------------------------------------------------------------------
{'driver': 'gradient',
 'extras': {'psiapi': True, 'wfn_qcvars_only': True},
 'id': None,
 'keywords': {'ENSURE_BT_CONVERGENCE': 1,
              'FULL_HESS_EVERY': 0,
              'GEOM_MAXITER': 500,
              'G_CONVERGENCE': 'GAU_VERYTIGHT',
              'IRC_DIRECTION': 'FORWARD',
              'IRC_POINTS': 100,
              'IRC_STEP_SIZE': 0.25,
              'NORMAL_MODES_WRITE': 1,
              'OPT_TYPE': 'IRC',
              'PARENT_SYMMETRY': 'C2(z)',
              'REFERENCE': 'RHF',
              'SCF__D_CONVERGENCE': 1e-08,
              'SCF__E_CONVERGENCE': 1e-08,
              'SCF__INTS_TOLERANCE': 1e-12,
              'function_kwargs': {}},
 'model': {'basis': '6-31+g(d)', 'method': 'b3pw91'},
 'molecule': {'atom_labels': ['', '', '', '', '', '', '', '', '', ''],
              'atomic_numbers': [6, 6, 6, 6, 1, 1, 1, 1, 1, 1],
              'extras': {},
              'fix_com': True,
              'fix_orientation': True,
              'fix_symmetry': 'c2',
              'fragment_charges': [0.0],
              'fragment_multiplicities': [1],
              'fragments': [[0, 1, 2, 3, 4, 5, 6, 7, 8, 9]],
              'geometry': [1.9660091965639857, 0.48178318431450107, -1.2238802211402007, 1.3031850024562628,
                           -0.00015141909835675885, 1.3378283675162415, -1.3031850024562628, 0.00015141909835675885,
                           1.3378283675162415, -1.9660091965639857, -0.48178318431450107, -1.2238802211402007,
                           3.635380343721149, -0.3501496471327562, -2.1242975043775996, 1.3437167183435454,
                           2.2298941253865534, -2.0954254256591183, 2.610998644647837, -0.4512683751430152,
                           2.862390909512104, -2.610998644647837, 0.4512683751430152, 2.862390909512104,
                           -3.635380343721149, 0.3501496471327562, -2.1242975043775996, -1.3437167183435454,
                           -2.2298941253865534, -2.0954254256591183],
              'mass_numbers': [12, 12, 12, 12, 1, 1, 1, 1, 1, 1],
              'masses': [12.0, 12.0, 12.0, 12.0, 1.00782503223, 1.00782503223, 1.00782503223, 1.00782503223,
                         1.00782503223, 1.00782503223],
              'molecular_charge': 0.0,
              'molecular_multiplicity': 1,
              'name': 'C4H6',
              'provenance': {'creator': 'QCElemental',
                             'routine': 'qcelemental.molparse.from_string',
                             'version': '0.27.1'},
              'real': [True, True, True, True, True, True, True, True, True, True],
              'schema_name': 'qcschema_molecule',
              'schema_version': 2,
              'symbols': ['C', 'C', 'C', 'C', 'H', 'H', 'H', 'H', 'H', 'H'],
              'validated': True},
 'protocols': {'stdout': True},
 'provenance': {'creator': 'QCElemental', 'routine': 'qcelemental.models.results', 'version': '0.27.1'},
 'schema_name': 'qcschema_input',
 'schema_version': 1}
--------------------------------------------------------------------------

Scratch directory: /tmp/
gradient() will perform analytic gradient computation.
   => Libint2 <=

    Primary   basis highest AM E, G, H:  5, 4, 3
    Auxiliary basis highest AM E, G, H:  6, 5, 4
    Onebody   basis highest AM E, G, H:  6, 5, 4
    Solid Harmonics ordering:            Gaussian

*** tstart() called on Barrys-MacBook-Pro.local
*** at Thu May 30 21:24:46 2024

   => Loading Basis Set <=

    Name: 6-31+G(D)
    Role: ORBITAL
    Keyword: BASIS
    atoms 1-4  entry C          line   119 file /Users/blink/psi4conda/share/psi4/basis/6-31pg_d_.gbs 
    atoms 5-10 entry H          line    46 file /Users/blink/psi4conda/share/psi4/basis/6-31pg_d_.gbs 


         ---------------------------------------------------------
                                   SCF
               by Justin Turney, Rob Parrish, Andy Simmonett
                          and Daniel G. A. Smith
                              RKS Reference
                        4 Threads,   3814 MiB Core
         ---------------------------------------------------------

  ==> Geometry <==

    Molecular point group: c2
    Full point group: C2

    Geometry (in Bohr), charge = 0, multiplicity = 1:

       Center              X                  Y                   Z               Mass       
    ------------   -----------------  -----------------  -----------------  -----------------
         C            1.966009196564     0.481783184315    -1.223880221140    12.000000000000
         C            1.303185002456    -0.000151419098     1.337828367516    12.000000000000
         C           -1.303185002456     0.000151419098     1.337828367516    12.000000000000
         C           -1.966009196564    -0.481783184315    -1.223880221140    12.000000000000
         H            3.635380343721    -0.350149647133    -2.124297504378     1.007825032230
         H            1.343716718344     2.229894125387    -2.095425425659     1.007825032230
         H            2.610998644648    -0.451268375143     2.862390909512     1.007825032230
         H           -2.610998644648     0.451268375143     2.862390909512     1.007825032230
         H           -3.635380343721     0.350149647133    -2.124297504378     1.007825032230
         H           -1.343716718344    -2.229894125387    -2.095425425659     1.007825032230

  Running in c2 symmetry.

  Rotational constants: A =      0.47713  B =      0.31064  C =      0.20451 [cm^-1]
  Rotational constants: A =  14304.04998  B =   9312.67005  C =   6131.18644 [MHz]
  Nuclear repulsion =  109.667746560645725

  Charge       = 0
  Multiplicity = 1
  Electrons    = 30
  Nalpha       = 15
  Nbeta        = 15

  ==> Algorithm <==

  SCF Algorithm Type is DF.
  DIIS enabled.
  MOM disabled.
  Fractional occupation disabled.
  Guess Type is SAD.
  Energy threshold   = 1.00e-08
  Density threshold  = 1.00e-08
  Integral threshold = 1.00e-12

  ==> Primary Basis <==

  Basis Set: 6-31+G(D)
    Blend: 6-31+G(D)
    Number of shells: 44
    Number of basis functions: 88
    Number of Cartesian functions: 88
    Spherical Harmonics?: false
    Max angular momentum: 2

  ==> DFT Potential <==

   => LibXC <=

    Version 6.2.2
    S. Lehtola, C. Steigemann, M. J.T. Oliveira, and M. A.L. Marques.,  SoftwareX 7, 1–5 (2018) (10.1016/j.softx.2017.11.002)

   => Composite Functional: B3PW91 <= 

    B3PW91 Hyb-GGA Exchange-Correlation Functional

    A. D. Becke.,  J. Chem. Phys. 98, 5648 (1993) (10.1063/1.464913)

    Deriv               =              1
    GGA                 =           TRUE
    Meta                =          FALSE

    Exchange Hybrid     =           TRUE
    MP2 Hybrid          =          FALSE

   => Exchange Functionals <=

    0.0800   Slater exchange
    0.7200         Becke 88

   => Exact (HF) Exchange <=

    0.2000               HF 

   => Correlation Functionals <=

    0.1900    Perdew & Wang
    0.8100   Perdew & Wang 91

   => LibXC Density Thresholds  <==

    XC_HYB_GGA_XC_B3PW91:  1.00E-15 

   => Molecular Quadrature <=

    Radial Scheme          =       TREUTLER
    Pruning Scheme         =           NONE
    Nuclear Scheme         =       TREUTLER

    Blocking Scheme        =         OCTREE
    BS radius alpha        =              1
    Pruning alpha          =              1
    Radial Points          =             75
    Spherical Points       =            302
    Total Points           =         216012
    Total Blocks           =           1654
    Max Points             =            256
    Max Functions          =             88
    Weights Tolerance      =       1.00E-15

   => Loading Basis Set <=

    Name: (6-31+G(D) AUX)
    Role: JKFIT
    Keyword: DF_BASIS_SCF
    atoms 1-4  entry C          line   194 file /Users/blink/psi4conda/share/psi4/basis/heavy-aug-cc-pvdz-jkfit.gbs 
    atoms 5-10 entry H          line   116 file /Users/blink/psi4conda/share/psi4/basis/heavy-aug-cc-pvdz-jkfit.gbs 

  ==> Integral Setup <==

  DFHelper Memory: AOs need 0.036 GiB; user supplied 2.277 GiB. 
  Using in-core AOs.

  ==> MemDFJK: Density-Fitted J/K Matrices <==

    J tasked:                   Yes
    K tasked:                   Yes
    wK tasked:                   No
    OpenMP threads:               4
    Memory [MiB]:              2331
    Algorithm:                 Core
    Schwarz Cutoff:           1E-12
    Mask sparsity (%):       0.0517
    Fitting Condition:        1E-10

   => Auxiliary Basis Set <=

  Basis Set: (6-31+G(D) AUX)
    Blend: HEAVY-AUG-CC-PVDZ-JKFIT
    Number of shells: 166
    Number of basis functions: 554
    Number of Cartesian functions: 554
    Spherical Harmonics?: false
    Max angular momentum: 3

  Cached 100.0% of DFT collocation blocks in 0.517 [GiB].

  Minimum eigenvalue in the overlap matrix is 1.9189597526E-04.
  Reciprocal condition number of the overlap matrix is 2.3244761919E-05.
    Using symmetric orthogonalization.

  ==> Pre-Iterations <==

  SCF Guess: Superposition of Atomic Densities via on-the-fly atomic UHF (no occupation information).

   -------------------------
    Irrep   Nso     Nmo    
   -------------------------
     A         44      44 
     B         44      44 
   -------------------------
    Total      88      88
   -------------------------

  ==> Iterations <==

                           Total Energy        Delta E     RMS |[F,P]|

   @DF-RKS iter SAD:  -155.23674256563072   -1.55237e+02   0.00000e+00 
   @DF-RKS iter   1:  -155.43859179208562   -2.01849e-01   1.39635e-02 DIIS/ADIIS
   @DF-RKS iter   2:  -155.06989458396993    3.68697e-01   1.87855e-02 DIIS/ADIIS
   @DF-RKS iter   3:  -155.86228305957354   -7.92388e-01   9.11467e-04 DIIS/ADIIS
   @DF-RKS iter   4:  -155.86227185162656    1.12079e-05   8.88853e-04 DIIS/ADIIS
   @DF-RKS iter   5:  -155.86377471218947   -1.50286e-03   2.23536e-04 DIIS/ADIIS
   @DF-RKS iter   6:  -155.86388025788162   -1.05546e-04   2.22414e-05 DIIS
   @DF-RKS iter   7:  -155.86388143096420   -1.17308e-06   2.23871e-06 DIIS
   @DF-RKS iter   8:  -155.86388144637522   -1.54110e-08   3.67317e-07 DIIS
   @DF-RKS iter   9:  -155.86388144695857   -5.83356e-10   5.09860e-08 DIIS
   @DF-RKS iter  10:  -155.86388144697941   -2.08331e-11   1.27769e-08 DIIS
   @DF-RKS iter  11:  -155.86388144698006   -6.53699e-13   1.51331e-09 DIIS
  Energy and wave function converged.


  ==> Post-Iterations <==

   Electrons on quadrature grid:
      Ntotal   =   29.9999735992 ; deviation = -2.640e-05 

    Orbital Energies [Eh]
    ---------------------

    Doubly Occupied:                                                      

       1A    -10.194838     1B    -10.194828     2A    -10.179875  
       2B    -10.179247     3A     -0.839845     3B     -0.692059  
       4A     -0.633682     4B     -0.535559     5A     -0.496091  
       5B     -0.441480     6A     -0.422939     6B     -0.377901  
       7A     -0.371439     7B     -0.248707     8A     -0.248636  

    Virtual:                                                              

       8B     -0.031324     9A      0.004695    10A      0.031771  
      11A      0.038279     9B      0.047409    10B      0.057151  
      11B      0.074027    12A      0.083976    13A      0.099443  
      14A      0.101726    12B      0.102298    15A      0.124710  
      13B      0.139837    16A      0.152961    14B      0.154335  
      15B      0.172585    17A      0.179444    16B      0.180978  
      18A      0.221540    17B      0.242669    18B      0.267144  
      19A      0.272447    19B      0.284661    20A      0.306373  
      21A      0.317884    20B      0.361022    21B      0.437178  
      22A      0.598607    22B      0.668377    23A      0.688346  
      23B      0.692927    24A      0.705732    24B      0.735055  
      25A      0.740312    25B      0.742240    26A      0.760478  
      26B      0.841751    27A      0.870427    27B      0.891388  
      28A      0.944093    29A      0.978921    28B      0.987442  
      29B      1.039716    30A      1.063269    30B      1.099717  
      31A      1.112102    31B      1.142066    32A      1.162461  
      32B      1.265372    33A      1.475325    33B      1.490113  
      34A      1.738585    34B      1.786809    35A      1.854491  
      35B      1.862400    36A      1.931376    36B      2.040734  
      37B      2.057149    37A      2.064953    38A      2.147309  
      38B      2.165545    39A      2.205974    39B      2.404023  
      40A      2.468615    41A      2.522390    40B      2.571583  
      42A      2.657209    41B      2.831421    42B      2.919069  
      43B      4.215484    43A      4.223204    44A      4.298467  
      44B      4.469354  

    Final Occupation by Irrep:
              A     B 
    DOCC [     8,    7 ]
    NA   [     8,    7 ]
    NB   [     8,    7 ]

  @DF-RKS Final Energy:  -155.86388144698006

   => Energetics <=

    Nuclear Repulsion Energy =            109.6677465606457247
    One-Electron Energy =                -425.1879376358185709
    Two-Electron Energy =                 178.8758297803687753
    DFT Exchange-Correlation Energy =     -19.2195201521759529
    Empirical Dispersion Energy =           0.0000000000000000
    VV10 Nonlocal Energy =                  0.0000000000000000
    Total Energy =                       -155.8638814469800593

Computation Completed


Properties will be evaluated at   0.000000,   0.000000,   0.000000 [a0]

Properties computed using the SCF density matrix


 Multipole Moments:

 ------------------------------------------------------------------------------------
     Multipole            Electronic (a.u.)      Nuclear  (a.u.)        Total (a.u.)
 ------------------------------------------------------------------------------------

 L = 1.  Multiply by 2.5417464519 to convert [e a0] to [Debye]
 Dipole X            :          0.0000000           -0.0000000           -0.0000000
 Dipole Y            :          0.0000000            0.0000000            0.0000000
 Dipole Z            :          1.2414247           -1.3472863           -0.1058616
 Magnitude           :                                                    0.1058616

 ------------------------------------------------------------------------------------

*** tstop() called on Barrys-MacBook-Pro.local at Thu May 30 21:24:50 2024
Module time:
	user time   =      11.97 seconds =       0.20 minutes
	system time =       0.58 seconds =       0.01 minutes
	total time  =          4 seconds =       0.07 minutes
Total time:
	user time   =     670.72 seconds =      11.18 minutes
	system time =      30.56 seconds =       0.51 minutes
	total time  =        587 seconds =       9.78 minutes

*** tstart() called on Barrys-MacBook-Pro.local
*** at Thu May 30 21:24:50 2024


         ------------------------------------------------------------
                                   SCF GRAD                          
                          Rob Parrish, Justin Turney,                
                       Andy Simmonett, and Alex Sokolov              
         ------------------------------------------------------------

  ==> Geometry <==

    Molecular point group: c2
    Full point group: C2

    Geometry (in Bohr), charge = 0, multiplicity = 1:

       Center              X                  Y                   Z               Mass       
    ------------   -----------------  -----------------  -----------------  -----------------
         C            1.966009196564     0.481783184315    -1.223880221140    12.000000000000
         C            1.303185002456    -0.000151419098     1.337828367516    12.000000000000
         C           -1.303185002456     0.000151419098     1.337828367516    12.000000000000
         C           -1.966009196564    -0.481783184315    -1.223880221140    12.000000000000
         H            3.635380343721    -0.350149647133    -2.124297504378     1.007825032230
         H            1.343716718344     2.229894125387    -2.095425425659     1.007825032230
         H            2.610998644648    -0.451268375143     2.862390909512     1.007825032230
         H           -2.610998644648     0.451268375143     2.862390909512     1.007825032230
         H           -3.635380343721     0.350149647133    -2.124297504378     1.007825032230
         H           -1.343716718344    -2.229894125387    -2.095425425659     1.007825032230

  Nuclear repulsion =  109.667746560645725

  ==> Basis Set <==

  Basis Set: 6-31+G(D)
    Blend: 6-31+G(D)
    Number of shells: 44
    Number of basis functions: 88
    Number of Cartesian functions: 88
    Spherical Harmonics?: false
    Max angular momentum: 2

  ==> DFJKGrad: Density-Fitted SCF Gradients <==

    Gradient:                    1
    J tasked:                  Yes
    K tasked:                  Yes
    wK tasked:                  No
    OpenMP threads:              4
    Integrals threads:           4
    Memory [MiB]:             2861
    Schwarz Cutoff:          1E-12
    Fitting Condition:       1E-10

   => Auxiliary Basis Set <=

  Basis Set: (6-31+G(D) AUX)
    Blend: HEAVY-AUG-CC-PVDZ-JKFIT
    Number of shells: 166
    Number of basis functions: 554
    Number of Cartesian functions: 554
    Spherical Harmonics?: false
    Max angular momentum: 3

  ==> DFT Potential <==

   => LibXC <=

    Version 6.2.2
    S. Lehtola, C. Steigemann, M. J.T. Oliveira, and M. A.L. Marques.,  SoftwareX 7, 1–5 (2018) (10.1016/j.softx.2017.11.002)

   => Composite Functional: B3PW91 <= 

    B3PW91 Hyb-GGA Exchange-Correlation Functional

    A. D. Becke.,  J. Chem. Phys. 98, 5648 (1993) (10.1063/1.464913)

    Deriv               =              1
    GGA                 =           TRUE
    Meta                =          FALSE

    Exchange Hybrid     =           TRUE
    MP2 Hybrid          =          FALSE

   => Exchange Functionals <=

    0.0800   Slater exchange
    0.7200         Becke 88

   => Exact (HF) Exchange <=

    0.2000               HF 

   => Correlation Functionals <=

    0.1900    Perdew & Wang
    0.8100   Perdew & Wang 91

   => LibXC Density Thresholds  <==

    XC_HYB_GGA_XC_B3PW91:  1.00E-15 

   => Molecular Quadrature <=

    Radial Scheme          =       TREUTLER
    Pruning Scheme         =           NONE
    Nuclear Scheme         =       TREUTLER

    Blocking Scheme        =         OCTREE
    BS radius alpha        =              1
    Pruning alpha          =              1
    Radial Points          =             75
    Spherical Points       =            302
    Total Points           =         216012
    Total Blocks           =           1654
    Max Points             =            256
    Max Functions          =             88
    Weights Tolerance      =       1.00E-15


  -Total Gradient:
     Atom            X                  Y                   Z
    ------   -----------------  -----------------  -----------------
       1        0.000000020126    -0.000000073881     0.000000825985
       2       -0.000000034698    -0.000000130796     0.000000898393
       3        0.000000034698     0.000000130796     0.000000898393
       4       -0.000000020126     0.000000073881     0.000000825985
       5       -0.000000016958    -0.000000160164     0.000000843910
       6        0.000000109002    -0.000000073062     0.000000840133
       7       -0.000000133201    -0.000000099892     0.000000789864
       8        0.000000133201     0.000000099892     0.000000789864
       9        0.000000016958     0.000000160164     0.000000843910
      10       -0.000000109002     0.000000073062     0.000000840133


*** tstop() called on Barrys-MacBook-Pro.local at Thu May 30 21:24:51 2024
Module time:
	user time   =       3.29 seconds =       0.05 minutes
	system time =       0.10 seconds =       0.00 minutes
	total time  =          1 seconds =       0.02 minutes
Total time:
	user time   =     674.02 seconds =      11.23 minutes
	system time =      30.66 seconds =       0.51 minutes
	total time  =        588 seconds =       9.80 minutes

    Psi4 stopped on: Thursday, 30 May 2024 09:24PM
    Psi4 wall time for execution: 0:00:04.32


    -----------------------------------------------------------------------
          Psi4: An Open-Source Ab Initio Electronic Structure Package
                               Psi4 1.9.1 release

                         Git: Rev {} zzzzzzz 


    D. G. A. Smith, L. A. Burns, A. C. Simmonett, R. M. Parrish,
    M. C. Schieber, R. Galvelis, P. Kraus, H. Kruse, R. Di Remigio,
    A. Alenaizan, A. M. James, S. Lehtola, J. P. Misiewicz, M. Scheurer,
    R. A. Shaw, J. B. Schriber, Y. Xie, Z. L. Glick, D. A. Sirianni,
    J. S. O'Brien, J. M. Waldrop, A. Kumar, E. G. Hohenstein,
    B. P. Pritchard, B. R. Brooks, H. F. Schaefer III, A. Yu. Sokolov,
    K. Patkowski, A. E. DePrince III, U. Bozkaya, R. A. King,
    F. A. Evangelista, J. M. Turney, T. D. Crawford, C. D. Sherrill,
    J. Chem. Phys. 152(18) 184108 (2020). https://doi.org/10.1063/5.0006002

                            Additional Code Authors
    E. T. Seidl, C. L. Janssen, E. F. Valeev, M. L. Leininger,
    J. F. Gonthier, R. M. Richard, H. R. McAlexander, M. Saitow, X. Wang,
    P. Verma, M. H. Lechner, A. Jiang, S. Behnle, A. G. Heide,
    M. F. Herbst, and D. L. Poole

             Previous Authors, Complete List of Code Contributors,
                       and Citations for Specific Modules
    https://github.com/psi4/psi4/blob/master/codemeta.json
    https://github.com/psi4/psi4/graphs/contributors
    http://psicode.org/psi4manual/master/introduction.html#citing-psifour

    -----------------------------------------------------------------------


    Psi4 started on: Thursday, 30 May 2024 09:13PM

    Process ID: 56957
    Host:       Barrys-MacBook-Pro.local
    PSIDATADIR: /Users/blink/psi4conda/share/psi4
    Memory:     3.7 GiB
    Threads:    4
    
  ==> Input QCSchema <==

--------------------------------------------------------------------------
{'driver': 'gradient',
 'extras': {'psiapi': True, 'wfn_qcvars_only': True},
 'id': None,
 'keywords': {'ENSURE_BT_CONVERGENCE': 1,
              'FULL_HESS_EVERY': 0,
              'GEOM_MAXITER': 500,
              'G_CONVERGENCE': 'GAU_VERYTIGHT',
              'IRC_DIRECTION': 'FORWARD',
              'IRC_POINTS': 100,
              'IRC_STEP_SIZE': 0.25,
              'NORMAL_MODES_WRITE': 1,
              'OPT_TYPE': 'IRC',
              'PARENT_SYMMETRY': 'C2(z)',
              'REFERENCE': 'RHF',
              'SCF__D_CONVERGENCE': 1e-08,
              'SCF__E_CONVERGENCE': 1e-08,
              'SCF__INTS_TOLERANCE': 1e-12,
              'function_kwargs': {'write_orbitals': False}},
 'model': {'basis': '6-31+g(d)', 'method': 'b3pw91'},
 'molecule': {'atom_labels': ['', '', '', '', '', '', '', '', '', ''],
              'atomic_numbers': [6, 6, 6, 6, 1, 1, 1, 1, 1, 1],
              'extras': {},
              'fix_com': True,
              'fix_orientation': True,
              'fix_symmetry': 'c2(z)',
              'fragment_charges': [0.0],
              'fragment_multiplicities': [1],
              'fragments': [[0, 1, 2, 3, 4, 5, 6, 7, 8, 9]],
              'geometry': [1.9650033520599093, 0.48166170407864656, -1.2238802211402007, 1.303184993100036,
                           -0.00023194324938164017, 1.3378283675162415, -1.303184993100036, 0.00023194324938164017,
                           1.3378283675162415, -1.9650033520599093, -0.48166170407864656, -1.2238802211402007,
                           3.635358707880486, -0.35037427825978645, -2.1242975043775996, 1.343854504099968,
                           2.2298110967699265, -2.0954254256591183, 2.610970760653834, -0.45142970944995636,
                           2.862390909512104, -2.610970760653834, 0.45142970944995636, 2.862390909512104,
                           -3.635358707880486, 0.35037427825978645, -2.1242975043775996, -1.343854504099968,
                           -2.2298110967699265, -2.0954254256591183],
              'mass_numbers': [12, 12, 12, 12, 1, 1, 1, 1, 1, 1],
              'masses': [12.0, 12.0, 12.0, 12.0, 1.00782503223, 1.00782503223, 1.00782503223, 1.00782503223,
                         1.00782503223, 1.00782503223],
              'molecular_charge': 0.0,
              'molecular_multiplicity': 1,
              'name': 'C4H6',
              'provenance': {'creator': 'QCElemental',
                             'routine': 'qcelemental.molparse.from_string',
                             'version': '0.27.1'},
              'real': [True, True, True, True, True, True, True, True, True, True],
              'schema_name': 'qcschema_molecule',
              'schema_version': 2,
              'symbols': ['C', 'C', 'C', 'C', 'H', 'H', 'H', 'H', 'H', 'H'],
              'validated': True},
 'protocols': {'stdout': True},
 'provenance': {'creator': 'QCElemental', 'routine': 'qcelemental.models.results', 'version': '0.27.1'},
 'schema_name': 'qcschema_input',
 'schema_version': 1}
--------------------------------------------------------------------------

Scratch directory: /tmp/
gradient() will perform analytic gradient computation.
   => Libint2 <=

    Primary   basis highest AM E, G, H:  5, 4, 3
    Auxiliary basis highest AM E, G, H:  6, 5, 4
    Onebody   basis highest AM E, G, H:  6, 5, 4
    Solid Harmonics ordering:            Gaussian

*** tstart() called on Barrys-MacBook-Pro.local
*** at Thu May 30 21:24:51 2024

   => Loading Basis Set <=

    Name: 6-31+G(D)
    Role: ORBITAL
    Keyword: BASIS
    atoms 1-4  entry C          line   119 file /Users/blink/psi4conda/share/psi4/basis/6-31pg_d_.gbs 
    atoms 5-10 entry H          line    46 file /Users/blink/psi4conda/share/psi4/basis/6-31pg_d_.gbs 


         ---------------------------------------------------------
                                   SCF
               by Justin Turney, Rob Parrish, Andy Simmonett
                          and Daniel G. A. Smith
                              RKS Reference
                        4 Threads,   3814 MiB Core
         ---------------------------------------------------------

  ==> Geometry <==

    Molecular point group: c2
    Full point group: C2

    Geometry (in Bohr), charge = 0, multiplicity = 1:

       Center              X                  Y                   Z               Mass       
    ------------   -----------------  -----------------  -----------------  -----------------
         C            1.965003352060     0.481661704079    -1.223880221140    12.000000000000
         C            1.303184993100    -0.000231943249     1.337828367516    12.000000000000
         C           -1.303184993100     0.000231943249     1.337828367516    12.000000000000
         C           -1.965003352060    -0.481661704079    -1.223880221140    12.000000000000
         H            3.635358707880    -0.350374278260    -2.124297504378     1.007825032230
         H            1.343854504100     2.229811096770    -2.095425425659     1.007825032230
         H            2.610970760654    -0.451429709450     2.862390909512     1.007825032230
         H           -2.610970760654     0.451429709450     2.862390909512     1.007825032230
         H           -3.635358707880     0.350374278260    -2.124297504378     1.007825032230
         H           -1.343854504100    -2.229811096770    -2.095425425659     1.007825032230

  Running in c2 symmetry.

  Rotational constants: A =      0.47713  B =      0.31079  C =      0.20458 [cm^-1]
  Rotational constants: A =  14303.89236  B =   9317.36754  C =   6133.25121 [MHz]
  Nuclear repulsion =  109.677620312467837

  Charge       = 0
  Multiplicity = 1
  Electrons    = 30
  Nalpha       = 15
  Nbeta        = 15

  ==> Algorithm <==

  SCF Algorithm Type is DF.
  DIIS enabled.
  MOM disabled.
  Fractional occupation disabled.
  Guess Type is SAD.
  Energy threshold   = 1.00e-08
  Density threshold  = 1.00e-08
  Integral threshold = 1.00e-12

  ==> Primary Basis <==

  Basis Set: 6-31+G(D)
    Blend: 6-31+G(D)
    Number of shells: 44
    Number of basis functions: 88
    Number of Cartesian functions: 88
    Spherical Harmonics?: false
    Max angular momentum: 2

  ==> DFT Potential <==

   => LibXC <=

    Version 6.2.2
    S. Lehtola, C. Steigemann, M. J.T. Oliveira, and M. A.L. Marques.,  SoftwareX 7, 1–5 (2018) (10.1016/j.softx.2017.11.002)

   => Composite Functional: B3PW91 <= 

    B3PW91 Hyb-GGA Exchange-Correlation Functional

    A. D. Becke.,  J. Chem. Phys. 98, 5648 (1993) (10.1063/1.464913)

    Deriv               =              1
    GGA                 =           TRUE
    Meta                =          FALSE

    Exchange Hybrid     =           TRUE
    MP2 Hybrid          =          FALSE

   => Exchange Functionals <=

    0.0800   Slater exchange
    0.7200         Becke 88

   => Exact (HF) Exchange <=

    0.2000               HF 

   => Correlation Functionals <=

    0.1900    Perdew & Wang
    0.8100   Perdew & Wang 91

   => LibXC Density Thresholds  <==

    XC_HYB_GGA_XC_B3PW91:  1.00E-15 

   => Molecular Quadrature <=

    Radial Scheme          =       TREUTLER
    Pruning Scheme         =           NONE
    Nuclear Scheme         =       TREUTLER

    Blocking Scheme        =         OCTREE
    BS radius alpha        =              1
    Pruning alpha          =              1
    Radial Points          =             75
    Spherical Points       =            302
    Total Points           =         216014
    Total Blocks           =           1656
    Max Points             =            256
    Max Functions          =             88
    Weights Tolerance      =       1.00E-15

   => Loading Basis Set <=

    Name: (6-31+G(D) AUX)
    Role: JKFIT
    Keyword: DF_BASIS_SCF
    atoms 1-4  entry C          line   194 file /Users/blink/psi4conda/share/psi4/basis/heavy-aug-cc-pvdz-jkfit.gbs 
    atoms 5-10 entry H          line   116 file /Users/blink/psi4conda/share/psi4/basis/heavy-aug-cc-pvdz-jkfit.gbs 

  ==> Integral Setup <==

  DFHelper Memory: AOs need 0.036 GiB; user supplied 2.277 GiB. 
  Using in-core AOs.

  ==> MemDFJK: Density-Fitted J/K Matrices <==

    J tasked:                   Yes
    K tasked:                   Yes
    wK tasked:                   No
    OpenMP threads:               4
    Memory [MiB]:              2331
    Algorithm:                 Core
    Schwarz Cutoff:           1E-12
    Mask sparsity (%):       0.0517
    Fitting Condition:        1E-10

   => Auxiliary Basis Set <=

  Basis Set: (6-31+G(D) AUX)
    Blend: HEAVY-AUG-CC-PVDZ-JKFIT
    Number of shells: 166
    Number of basis functions: 554
    Number of Cartesian functions: 554
    Spherical Harmonics?: false
    Max angular momentum: 3

  Cached 100.0% of DFT collocation blocks in 0.517 [GiB].

  Minimum eigenvalue in the overlap matrix is 1.9181316243E-04.
  Reciprocal condition number of the overlap matrix is 2.3233071529E-05.
    Using symmetric orthogonalization.

  ==> Pre-Iterations <==

  SCF Guess: Superposition of Atomic Densities via on-the-fly atomic UHF (no occupation information).

   -------------------------
    Irrep   Nso     Nmo    
   -------------------------
     A         44      44 
     B         44      44 
   -------------------------
    Total      88      88
   -------------------------

  ==> Iterations <==

                           Total Energy        Delta E     RMS |[F,P]|

   @DF-RKS iter SAD:  -155.23726180684633   -1.55237e+02   0.00000e+00 
   @DF-RKS iter   1:  -155.43837277040399   -2.01111e-01   1.39674e-02 DIIS/ADIIS
   @DF-RKS iter   2:  -155.06889261998094    3.69480e-01   1.87976e-02 DIIS/ADIIS
   @DF-RKS iter   3:  -155.86228889057091   -7.93396e-01   9.09872e-04 DIIS/ADIIS
   @DF-RKS iter   4:  -155.86228150090830    7.38966e-06   8.86188e-04 DIIS/ADIIS
   @DF-RKS iter   5:  -155.86377424993063   -1.49275e-03   2.23660e-04 DIIS/ADIIS
   @DF-RKS iter   6:  -155.86387989309239   -1.05643e-04   2.22601e-05 DIIS
   @DF-RKS iter   7:  -155.86388106803588   -1.17494e-06   2.23511e-06 DIIS
   @DF-RKS iter   8:  -155.86388108340378   -1.53679e-08   3.67441e-07 DIIS
   @DF-RKS iter   9:  -155.86388108398683   -5.83043e-10   5.09505e-08 DIIS
   @DF-RKS iter  10:  -155.86388108400729   -2.04636e-11   1.27455e-08 DIIS
   @DF-RKS iter  11:  -155.86388108400814   -8.52651e-13   1.51265e-09 DIIS
  Energy and wave function converged.


  ==> Post-Iterations <==

   Electrons on quadrature grid:
      Ntotal   =   29.9999734103 ; deviation = -2.659e-05 

    Orbital Energies [Eh]
    ---------------------

    Doubly Occupied:                                                      

       1A    -10.194850     1B    -10.194840     2A    -10.179853  
       2B    -10.179226     3A     -0.839940     3B     -0.692026  
       4A     -0.633674     4B     -0.535550     5A     -0.496096  
       5B     -0.441434     6A     -0.422980     6B     -0.377941  
       7A     -0.371328     8A     -0.248739     7B     -0.248666  

    Virtual:                                                              

       8B     -0.031190     9A      0.004673    10A      0.031760  
      11A      0.038279     9B      0.047414    10B      0.057153  
      11B      0.074026    12A      0.083962    13A      0.099434  
      14A      0.101737    12B      0.102296    15A      0.124702  
      13B      0.139838    16A      0.152956    14B      0.154342  
      15B      0.172572    17A      0.179446    16B      0.180972  
      18A      0.221494    17B      0.242612    18B      0.267185  
      19A      0.272490    19B      0.284684    20A      0.306446  
      21A      0.317817    20B      0.360997    21B      0.437201  
      22A      0.598566    22B      0.668319    23A      0.688472  
      23B      0.692984    24A      0.705663    24B      0.735045  
      25A      0.740286    25B      0.742270    26A      0.760556  
      26B      0.841727    27A      0.870489    27B      0.891371  
      28A      0.944274    29A      0.978688    28B      0.987454  
      29B      1.039702    30A      1.063357    30B      1.099710  
      31A      1.112290    31B      1.142056    32A      1.162485  
      32B      1.265420    33A      1.475112    33B      1.490049  
      34A      1.738620    34B      1.786874    35A      1.854519  
      35B      1.862161    36A      1.931396    36B      2.040817  
      37B      2.057569    37A      2.064887    38A      2.147237  
      38B      2.165925    39A      2.206135    39B      2.404258  
      40A      2.468776    41A      2.522404    40B      2.571607  
      42A      2.657260    41B      2.831476    42B      2.919078  
      43B      4.215661    43A      4.223066    44A      4.298456  
      44B      4.469374  

    Final Occupation by Irrep:
              A     B 
    DOCC [     8,    7 ]
    NA   [     8,    7 ]
    NB   [     8,    7 ]

  @DF-RKS Final Energy:  -155.86388108400814

   => Energetics <=

    Nuclear Repulsion Energy =            109.6776203124678375
    One-Electron Energy =                -425.2076117285395185
    Two-Electron Energy =                 178.8856877565841330
    DFT Exchange-Correlation Energy =     -19.2195774245206259
    Empirical Dispersion Energy =           0.0000000000000000
    VV10 Nonlocal Energy =                  0.0000000000000000
    Total Energy =                       -155.8638810840081419

Computation Completed


Properties will be evaluated at   0.000000,   0.000000,   0.000000 [a0]

Properties computed using the SCF density matrix


 Multipole Moments:

 ------------------------------------------------------------------------------------
     Multipole            Electronic (a.u.)      Nuclear  (a.u.)        Total (a.u.)
 ------------------------------------------------------------------------------------

 L = 1.  Multiply by 2.5417464519 to convert [e a0] to [Debye]
 Dipole X            :          0.0000000            0.0000000            0.0000000
 Dipole Y            :          0.0000000            0.0000000            0.0000000
 Dipole Z            :          1.2416684           -1.3472863           -0.1056179
 Magnitude           :                                                    0.1056179

 ------------------------------------------------------------------------------------

*** tstop() called on Barrys-MacBook-Pro.local at Thu May 30 21:24:54 2024
Module time:
	user time   =      11.85 seconds =       0.20 minutes
	system time =       0.55 seconds =       0.01 minutes
	total time  =          3 seconds =       0.05 minutes
Total time:
	user time   =     686.18 seconds =      11.44 minutes
	system time =      31.22 seconds =       0.52 minutes
	total time  =        591 seconds =       9.85 minutes

*** tstart() called on Barrys-MacBook-Pro.local
*** at Thu May 30 21:24:54 2024


         ------------------------------------------------------------
                                   SCF GRAD                          
                          Rob Parrish, Justin Turney,                
                       Andy Simmonett, and Alex Sokolov              
         ------------------------------------------------------------

  ==> Geometry <==

    Molecular point group: c2
    Full point group: C2

    Geometry (in Bohr), charge = 0, multiplicity = 1:

       Center              X                  Y                   Z               Mass       
    ------------   -----------------  -----------------  -----------------  -----------------
         C            1.965003352060     0.481661704079    -1.223880221140    12.000000000000
         C            1.303184993100    -0.000231943249     1.337828367516    12.000000000000
         C           -1.303184993100     0.000231943249     1.337828367516    12.000000000000
         C           -1.965003352060    -0.481661704079    -1.223880221140    12.000000000000
         H            3.635358707880    -0.350374278260    -2.124297504378     1.007825032230
         H            1.343854504100     2.229811096770    -2.095425425659     1.007825032230
         H            2.610970760654    -0.451429709450     2.862390909512     1.007825032230
         H           -2.610970760654     0.451429709450     2.862390909512     1.007825032230
         H           -3.635358707880     0.350374278260    -2.124297504378     1.007825032230
         H           -1.343854504100    -2.229811096770    -2.095425425659     1.007825032230

  Nuclear repulsion =  109.677620312467837

  ==> Basis Set <==

  Basis Set: 6-31+G(D)
    Blend: 6-31+G(D)
    Number of shells: 44
    Number of basis functions: 88
    Number of Cartesian functions: 88
    Spherical Harmonics?: false
    Max angular momentum: 2

  ==> DFJKGrad: Density-Fitted SCF Gradients <==

    Gradient:                    1
    J tasked:                  Yes
    K tasked:                  Yes
    wK tasked:                  No
    OpenMP threads:              4
    Integrals threads:           4
    Memory [MiB]:             2861
    Schwarz Cutoff:          1E-12
    Fitting Condition:       1E-10

   => Auxiliary Basis Set <=

  Basis Set: (6-31+G(D) AUX)
    Blend: HEAVY-AUG-CC-PVDZ-JKFIT
    Number of shells: 166
    Number of basis functions: 554
    Number of Cartesian functions: 554
    Spherical Harmonics?: false
    Max angular momentum: 3

  ==> DFT Potential <==

   => LibXC <=

    Version 6.2.2
    S. Lehtola, C. Steigemann, M. J.T. Oliveira, and M. A.L. Marques.,  SoftwareX 7, 1–5 (2018) (10.1016/j.softx.2017.11.002)

   => Composite Functional: B3PW91 <= 

    B3PW91 Hyb-GGA Exchange-Correlation Functional

    A. D. Becke.,  J. Chem. Phys. 98, 5648 (1993) (10.1063/1.464913)

    Deriv               =              1
    GGA                 =           TRUE
    Meta                =          FALSE

    Exchange Hybrid     =           TRUE
    MP2 Hybrid          =          FALSE

   => Exchange Functionals <=

    0.0800   Slater exchange
    0.7200         Becke 88

   => Exact (HF) Exchange <=

    0.2000               HF 

   => Correlation Functionals <=

    0.1900    Perdew & Wang
    0.8100   Perdew & Wang 91

   => LibXC Density Thresholds  <==

    XC_HYB_GGA_XC_B3PW91:  1.00E-15 

   => Molecular Quadrature <=

    Radial Scheme          =       TREUTLER
    Pruning Scheme         =           NONE
    Nuclear Scheme         =       TREUTLER

    Blocking Scheme        =         OCTREE
    BS radius alpha        =              1
    Pruning alpha          =              1
    Radial Points          =             75
    Spherical Points       =            302
    Total Points           =         216014
    Total Blocks           =           1656
    Max Points             =            256
    Max Functions          =             88
    Weights Tolerance      =       1.00E-15


  -Total Gradient:
     Atom            X                  Y                   Z
    ------   -----------------  -----------------  -----------------
       1       -0.000324152071     0.000192611100     0.000217034922
       2        0.000095816672    -0.000022703582    -0.000159749469
       3       -0.000095816672     0.000022703582    -0.000159749469
       4        0.000324152071    -0.000192611100     0.000217034922
       5        0.000241897205    -0.000082254091    -0.000080273158
       6        0.000032517875    -0.000124265754     0.000016306962
       7       -0.000013795827    -0.000017998947     0.000010896080
       8        0.000013795827     0.000017998947     0.000010896080
       9       -0.000241897205     0.000082254091    -0.000080273158
      10       -0.000032517875     0.000124265754     0.000016306962


*** tstop() called on Barrys-MacBook-Pro.local at Thu May 30 21:24:55 2024
Module time:
	user time   =       3.15 seconds =       0.05 minutes
	system time =       0.11 seconds =       0.00 minutes
	total time  =          1 seconds =       0.02 minutes
Total time:
	user time   =     689.34 seconds =      11.49 minutes
	system time =      31.33 seconds =       0.52 minutes
	total time  =        592 seconds =       9.87 minutes

    Psi4 stopped on: Thursday, 30 May 2024 09:24PM
    Psi4 wall time for execution: 0:00:04.20


    -----------------------------------------------------------------------
          Psi4: An Open-Source Ab Initio Electronic Structure Package
                               Psi4 1.9.1 release

                         Git: Rev {} zzzzzzz 


    D. G. A. Smith, L. A. Burns, A. C. Simmonett, R. M. Parrish,
    M. C. Schieber, R. Galvelis, P. Kraus, H. Kruse, R. Di Remigio,
    A. Alenaizan, A. M. James, S. Lehtola, J. P. Misiewicz, M. Scheurer,
    R. A. Shaw, J. B. Schriber, Y. Xie, Z. L. Glick, D. A. Sirianni,
    J. S. O'Brien, J. M. Waldrop, A. Kumar, E. G. Hohenstein,
    B. P. Pritchard, B. R. Brooks, H. F. Schaefer III, A. Yu. Sokolov,
    K. Patkowski, A. E. DePrince III, U. Bozkaya, R. A. King,
    F. A. Evangelista, J. M. Turney, T. D. Crawford, C. D. Sherrill,
    J. Chem. Phys. 152(18) 184108 (2020). https://doi.org/10.1063/5.0006002

                            Additional Code Authors
    E. T. Seidl, C. L. Janssen, E. F. Valeev, M. L. Leininger,
    J. F. Gonthier, R. M. Richard, H. R. McAlexander, M. Saitow, X. Wang,
    P. Verma, M. H. Lechner, A. Jiang, S. Behnle, A. G. Heide,
    M. F. Herbst, and D. L. Poole

             Previous Authors, Complete List of Code Contributors,
                       and Citations for Specific Modules
    https://github.com/psi4/psi4/blob/master/codemeta.json
    https://github.com/psi4/psi4/graphs/contributors
    http://psicode.org/psi4manual/master/introduction.html#citing-psifour

    -----------------------------------------------------------------------


    Psi4 started on: Thursday, 30 May 2024 09:13PM

    Process ID: 56957
    Host:       Barrys-MacBook-Pro.local
    PSIDATADIR: /Users/blink/psi4conda/share/psi4
    Memory:     3.7 GiB
    Threads:    4
    
  ==> Input QCSchema <==

--------------------------------------------------------------------------
{'driver': 'gradient',
 'extras': {'psiapi': True, 'wfn_qcvars_only': True},
 'id': None,
 'keywords': {'ENSURE_BT_CONVERGENCE': 1,
              'FULL_HESS_EVERY': 0,
              'GEOM_MAXITER': 500,
              'G_CONVERGENCE': 'GAU_VERYTIGHT',
              'IRC_DIRECTION': 'FORWARD',
              'IRC_POINTS': 100,
              'IRC_STEP_SIZE': 0.25,
              'NORMAL_MODES_WRITE': 1,
              'OPT_TYPE': 'IRC',
              'PARENT_SYMMETRY': 'C2(z)',
              'REFERENCE': 'RHF',
              'SCF__D_CONVERGENCE': 1e-08,
              'SCF__E_CONVERGENCE': 1e-08,
              'SCF__INTS_TOLERANCE': 1e-12,
              'function_kwargs': {'write_orbitals': False}},
 'model': {'basis': '6-31+g(d)', 'method': 'b3pw91'},
 'molecule': {'atom_labels': ['', '', '', '', '', '', '', '', '', ''],
              'atomic_numbers': [6, 6, 6, 6, 1, 1, 1, 1, 1, 1],
              'extras': {},
              'fix_com': True,
              'fix_orientation': True,
              'fix_symmetry': 'c2(z)',
              'fragment_charges': [0.0],
              'fragment_multiplicities': [1],
              'fragments': [[0, 1, 2, 3, 4, 5, 6, 7, 8, 9]],
              'geometry': [1.967015041068062, 0.4819046645503558, -1.2238802211402007, 1.3031850118124895,
                           -7.089494733171792e-05, 1.3378283675162415, -1.3031850118124895, 7.089494733171792e-05,
                           1.3378283675162415, -1.967015041068062, -0.4819046645503558, -1.2238802211402007,
                           3.6354019795618115, -0.3499250160057255, -2.1242975043775996, 1.3435789325871224,
                           2.2299771540031803, -2.0954254256591183, 2.6110265286418395, -0.4511070408360737,
                           2.862390909512104, -2.6110265286418395, 0.4511070408360737, 2.862390909512104,
                           -3.6354019795618115, 0.3499250160057255, -2.1242975043775996, -1.3435789325871224,
                           -2.2299771540031803, -2.0954254256591183],
              'mass_numbers': [12, 12, 12, 12, 1, 1, 1, 1, 1, 1],
              'masses': [12.0, 12.0, 12.0, 12.0, 1.00782503223, 1.00782503223, 1.00782503223, 1.00782503223,
                         1.00782503223, 1.00782503223],
              'molecular_charge': 0.0,
              'molecular_multiplicity': 1,
              'name': 'C4H6',
              'provenance': {'creator': 'QCElemental',
                             'routine': 'qcelemental.molparse.from_string',
                             'version': '0.27.1'},
              'real': [True, True, True, True, True, True, True, True, True, True],
              'schema_name': 'qcschema_molecule',
              'schema_version': 2,
              'symbols': ['C', 'C', 'C', 'C', 'H', 'H', 'H', 'H', 'H', 'H'],
              'validated': True},
 'protocols': {'stdout': True},
 'provenance': {'creator': 'QCElemental', 'routine': 'qcelemental.models.results', 'version': '0.27.1'},
 'schema_name': 'qcschema_input',
 'schema_version': 1}
--------------------------------------------------------------------------

Scratch directory: /tmp/
gradient() will perform analytic gradient computation.
   => Libint2 <=

    Primary   basis highest AM E, G, H:  5, 4, 3
    Auxiliary basis highest AM E, G, H:  6, 5, 4
    Onebody   basis highest AM E, G, H:  6, 5, 4
    Solid Harmonics ordering:            Gaussian

*** tstart() called on Barrys-MacBook-Pro.local
*** at Thu May 30 21:24:55 2024

   => Loading Basis Set <=

    Name: 6-31+G(D)
    Role: ORBITAL
    Keyword: BASIS
    atoms 1-4  entry C          line   119 file /Users/blink/psi4conda/share/psi4/basis/6-31pg_d_.gbs 
    atoms 5-10 entry H          line    46 file /Users/blink/psi4conda/share/psi4/basis/6-31pg_d_.gbs 


         ---------------------------------------------------------
                                   SCF
               by Justin Turney, Rob Parrish, Andy Simmonett
                          and Daniel G. A. Smith
                              RKS Reference
                        4 Threads,   3814 MiB Core
         ---------------------------------------------------------

  ==> Geometry <==

    Molecular point group: c2
    Full point group: C2

    Geometry (in Bohr), charge = 0, multiplicity = 1:

       Center              X                  Y                   Z               Mass       
    ------------   -----------------  -----------------  -----------------  -----------------
         C            1.967015041068     0.481904664550    -1.223880221140    12.000000000000
         C            1.303185011812    -0.000070894947     1.337828367516    12.000000000000
         C           -1.303185011812     0.000070894947     1.337828367516    12.000000000000
         C           -1.967015041068    -0.481904664550    -1.223880221140    12.000000000000
         H            3.635401979562    -0.349925016006    -2.124297504378     1.007825032230
         H            1.343578932587     2.229977154003    -2.095425425659     1.007825032230
         H            2.611026528642    -0.451107040836     2.862390909512     1.007825032230
         H           -2.611026528642     0.451107040836     2.862390909512     1.007825032230
         H           -3.635401979562     0.349925016006    -2.124297504378     1.007825032230
         H           -1.343578932587    -2.229977154003    -2.095425425659     1.007825032230

  Running in c2 symmetry.

  Rotational constants: A =      0.47714  B =      0.31048  C =      0.20445 [cm^-1]
  Rotational constants: A =  14304.20762  B =   9307.97489  C =   6129.12203 [MHz]
  Nuclear repulsion =  109.657875210794842

  Charge       = 0
  Multiplicity = 1
  Electrons    = 30
  Nalpha       = 15
  Nbeta        = 15

  ==> Algorithm <==

  SCF Algorithm Type is DF.
  DIIS enabled.
  MOM disabled.
  Fractional occupation disabled.
  Guess Type is SAD.
  Energy threshold   = 1.00e-08
  Density threshold  = 1.00e-08
  Integral threshold = 1.00e-12

  ==> Primary Basis <==

  Basis Set: 6-31+G(D)
    Blend: 6-31+G(D)
    Number of shells: 44
    Number of basis functions: 88
    Number of Cartesian functions: 88
    Spherical Harmonics?: false
    Max angular momentum: 2

  ==> DFT Potential <==

   => LibXC <=

    Version 6.2.2
    S. Lehtola, C. Steigemann, M. J.T. Oliveira, and M. A.L. Marques.,  SoftwareX 7, 1–5 (2018) (10.1016/j.softx.2017.11.002)

   => Composite Functional: B3PW91 <= 

    B3PW91 Hyb-GGA Exchange-Correlation Functional

    A. D. Becke.,  J. Chem. Phys. 98, 5648 (1993) (10.1063/1.464913)

    Deriv               =              1
    GGA                 =           TRUE
    Meta                =          FALSE

    Exchange Hybrid     =           TRUE
    MP2 Hybrid          =          FALSE

   => Exchange Functionals <=

    0.0800   Slater exchange
    0.7200         Becke 88

   => Exact (HF) Exchange <=

    0.2000               HF 

   => Correlation Functionals <=

    0.1900    Perdew & Wang
    0.8100   Perdew & Wang 91

   => LibXC Density Thresholds  <==

    XC_HYB_GGA_XC_B3PW91:  1.00E-15 

   => Molecular Quadrature <=

    Radial Scheme          =       TREUTLER
    Pruning Scheme         =           NONE
    Nuclear Scheme         =       TREUTLER

    Blocking Scheme        =         OCTREE
    BS radius alpha        =              1
    Pruning alpha          =              1
    Radial Points          =             75
    Spherical Points       =            302
    Total Points           =         216014
    Total Blocks           =           1652
    Max Points             =            256
    Max Functions          =             88
    Weights Tolerance      =       1.00E-15

   => Loading Basis Set <=

    Name: (6-31+G(D) AUX)
    Role: JKFIT
    Keyword: DF_BASIS_SCF
    atoms 1-4  entry C          line   194 file /Users/blink/psi4conda/share/psi4/basis/heavy-aug-cc-pvdz-jkfit.gbs 
    atoms 5-10 entry H          line   116 file /Users/blink/psi4conda/share/psi4/basis/heavy-aug-cc-pvdz-jkfit.gbs 

  ==> Integral Setup <==

  DFHelper Memory: AOs need 0.036 GiB; user supplied 2.277 GiB. 
  Using in-core AOs.

  ==> MemDFJK: Density-Fitted J/K Matrices <==

    J tasked:                   Yes
    K tasked:                   Yes
    wK tasked:                   No
    OpenMP threads:               4
    Memory [MiB]:              2332
    Algorithm:                 Core
    Schwarz Cutoff:           1E-12
    Mask sparsity (%):       0.0517
    Fitting Condition:        1E-10

   => Auxiliary Basis Set <=

  Basis Set: (6-31+G(D) AUX)
    Blend: HEAVY-AUG-CC-PVDZ-JKFIT
    Number of shells: 166
    Number of basis functions: 554
    Number of Cartesian functions: 554
    Spherical Harmonics?: false
    Max angular momentum: 3

  Cached 100.0% of DFT collocation blocks in 0.517 [GiB].

  Minimum eigenvalue in the overlap matrix is 1.9197891639E-04.
  Reciprocal condition number of the overlap matrix is 2.3256470137E-05.
    Using symmetric orthogonalization.

  ==> Pre-Iterations <==

  SCF Guess: Superposition of Atomic Densities via on-the-fly atomic UHF (no occupation information).

   -------------------------
    Irrep   Nso     Nmo    
   -------------------------
     A         44      44 
     B         44      44 
   -------------------------
    Total      88      88
   -------------------------

  ==> Iterations <==

                           Total Energy        Delta E     RMS |[F,P]|

   @DF-RKS iter SAD:  -155.23622320998300   -1.55236e+02   0.00000e+00 
   @DF-RKS iter   1:  -155.43880976785519   -2.02587e-01   1.39596e-02 DIIS/ADIIS
   @DF-RKS iter   2:  -155.07089353986981    3.67916e-01   1.87735e-02 DIIS/ADIIS
   @DF-RKS iter   3:  -155.86227651589903   -7.91383e-01   9.13070e-04 DIIS/ADIIS
   @DF-RKS iter   4:  -155.86226147859537    1.50373e-05   8.91523e-04 DIIS/ADIIS
   @DF-RKS iter   5:  -155.86377450343070   -1.51302e-03   2.23410e-04 DIIS/ADIIS
   @DF-RKS iter   6:  -155.86387995012529   -1.05447e-04   2.22228e-05 DIIS
   @DF-RKS iter   7:  -155.86388112135597   -1.17123e-06   2.24231e-06 DIIS
   @DF-RKS iter   8:  -155.86388113681031   -1.54543e-08   3.67195e-07 DIIS
   @DF-RKS iter   9:  -155.86388113739434   -5.84038e-10   5.10217e-08 DIIS
   @DF-RKS iter  10:  -155.86388113741509   -2.07478e-11   1.28084e-08 DIIS
   @DF-RKS iter  11:  -155.86388113741563   -5.40012e-13   1.51395e-09 DIIS
  Energy and wave function converged.


  ==> Post-Iterations <==

   Electrons on quadrature grid:
      Ntotal   =   29.9999737885 ; deviation = -2.621e-05 

    Orbital Energies [Eh]
    ---------------------

    Doubly Occupied:                                                      

       1A    -10.194826     1B    -10.194816     2A    -10.179896  
       2B    -10.179268     3A     -0.839750     3B     -0.692091  
       4A     -0.633689     4B     -0.535569     5A     -0.496087  
       5B     -0.441526     6A     -0.422898     6B     -0.377861  
       7A     -0.371551     7B     -0.248747     8A     -0.248533  

    Virtual:                                                              

       8B     -0.031458     9A      0.004718    10A      0.031782  
      11A      0.038278     9B      0.047403    10B      0.057149  
      11B      0.074027    12A      0.083989    13A      0.099452  
      14A      0.101716    12B      0.102300    15A      0.124717  
      13B      0.139836    16A      0.152965    14B      0.154329  
      15B      0.172599    17A      0.179443    16B      0.180983  
      18A      0.221587    17B      0.242725    18B      0.267103  
      19A      0.272404    19B      0.284638    20A      0.306299  
      21A      0.317951    20B      0.361046    21B      0.437155  
      22A      0.598647    22B      0.668436    23A      0.688220  
      23B      0.692869    24A      0.705801    24B      0.735065  
      25A      0.740337    25B      0.742210    26A      0.760400  
      26B      0.841775    27A      0.870365    27B      0.891404  
      28A      0.943913    29A      0.979155    28B      0.987429  
      29B      1.039731    30A      1.063181    30B      1.099725  
      31A      1.111915    31B      1.142076    32A      1.162436  
      32B      1.265324    33A      1.475539    33B      1.490177  
      34A      1.738549    34B      1.786743    35A      1.854464  
      35B      1.862639    36A      1.931356    36B      2.040636  
      37B      2.056742    37A      2.065019    38A      2.147380  
      38B      2.165169    39A      2.205813    39B      2.403790  
      40A      2.468453    41A      2.522377    40B      2.571560  
      42A      2.657159    41B      2.831366    42B      2.919060  
      43B      4.215308    43A      4.223341    44A      4.298479  
      44B      4.469335  

    Final Occupation by Irrep:
              A     B 
    DOCC [     8,    7 ]
    NA   [     8,    7 ]
    NB   [     8,    7 ]

  @DF-RKS Final Energy:  -155.86388113741563

   => Energetics <=

    Nuclear Repulsion Energy =            109.6578752107948418
    One-Electron Energy =                -425.1682653762392192
    Two-Electron Energy =                 178.8659719028749748
    DFT Exchange-Correlation Energy =     -19.2194628748462222
    Empirical Dispersion Energy =           0.0000000000000000
    VV10 Nonlocal Energy =                  0.0000000000000000
    Total Energy =                       -155.8638811374156319

Computation Completed


Properties will be evaluated at   0.000000,   0.000000,   0.000000 [a0]

Properties computed using the SCF density matrix


 Multipole Moments:

 ------------------------------------------------------------------------------------
     Multipole            Electronic (a.u.)      Nuclear  (a.u.)        Total (a.u.)
 ------------------------------------------------------------------------------------

 L = 1.  Multiply by 2.5417464519 to convert [e a0] to [Debye]
 Dipole X            :          0.0000000            0.0000000            0.0000000
 Dipole Y            :          0.0000000            0.0000000            0.0000000
 Dipole Z            :          1.2411822           -1.3472863           -0.1061041
 Magnitude           :                                                    0.1061041

 ------------------------------------------------------------------------------------

[...]


         ---------------------------------------------------------
                                   SCF
               by Justin Turney, Rob Parrish, Andy Simmonett
                          and Daniel G. A. Smith
                              RKS Reference
                        4 Threads,   3814 MiB Core
         ---------------------------------------------------------

  ==> Geometry <==

    Molecular point group: c2
    Full point group: C2

    Geometry (in Angstrom), charge = 0, multiplicity = 1:

       Center              X                  Y                   Z               Mass       
    ------------   -----------------  -----------------  -----------------  -----------------
         C            1.058578407884     0.255854312407    -0.639367150998    12.000000000000
         C            0.692875061898    -0.003639374671     0.702533123040    12.000000000000
         C           -0.692875061898     0.003639374671     0.702533123040    12.000000000000
         C           -1.058578407884    -0.255854312407    -0.639367150998    12.000000000000
         H            1.954118914541    -0.169414062518    -1.105020999022     1.007825032230
         H            0.692266109841     1.153663867851    -1.124531509251     1.007825032230
         H            1.378727517184    -0.262528786763     1.508416125918     1.007825032230
         H           -1.378727517184     0.262528786763     1.508416125918     1.007825032230
         H           -1.954118914541     0.169414062518    -1.105020999022     1.007825032230
         H           -0.692266109841    -1.153663867851    -1.124531509251     1.007825032230

  Running in c2 symmetry.

  Rotational constants: A =      0.48484  B =      0.30450  C =      0.20287 [cm^-1]
  Rotational constants: A =  14535.03370  B =   9128.75348  C =   6081.80720 [MHz]
  Nuclear repulsion =  109.572583183125062

  Charge       = 0
  Multiplicity = 1
  Electrons    = 30
  Nalpha       = 15
  Nbeta        = 15

  ==> Algorithm <==

  SCF Algorithm Type is DF.
  DIIS enabled.
  MOM disabled.
  Fractional occupation disabled.
  Guess Type is READ.
  Energy threshold   = 1.00e-08
  Density threshold  = 1.00e-08
  Integral threshold = 1.00e-12

  ==> Primary Basis <==

  Basis Set: 6-31+G(D)
    Blend: 6-31+G(D)
    Number of shells: 44
    Number of basis functions: 88
    Number of Cartesian functions: 88
    Spherical Harmonics?: false
    Max angular momentum: 2

  ==> DFT Potential <==

   => LibXC <=

    Version 6.2.2
    S. Lehtola, C. Steigemann, M. J.T. Oliveira, and M. A.L. Marques.,  SoftwareX 7, 1–5 (2018) (10.1016/j.softx.2017.11.002)

   => Composite Functional: B3PW91 <= 

    B3PW91 Hyb-GGA Exchange-Correlation Functional

    A. D. Becke.,  J. Chem. Phys. 98, 5648 (1993) (10.1063/1.464913)

    Deriv               =              1
    GGA                 =           TRUE
    Meta                =          FALSE

    Exchange Hybrid     =           TRUE
    MP2 Hybrid          =          FALSE

   => Exchange Functionals <=

    0.0800   Slater exchange
    0.7200         Becke 88

   => Exact (HF) Exchange <=

    0.2000               HF 

   => Correlation Functionals <=

    0.1900    Perdew & Wang
    0.8100   Perdew & Wang 91

   => LibXC Density Thresholds  <==

    XC_HYB_GGA_XC_B3PW91:  1.00E-15 

   => Molecular Quadrature <=

    Radial Scheme          =       TREUTLER
    Pruning Scheme         =           NONE
    Nuclear Scheme         =       TREUTLER

    Blocking Scheme        =         OCTREE
    BS radius alpha        =              1
    Pruning alpha          =              1
    Radial Points          =             75
    Spherical Points       =            302
    Total Points           =         216102
    Total Blocks           =           1650
    Max Points             =            256
    Max Functions          =             88
    Weights Tolerance      =       1.00E-15

   => Loading Basis Set <=

    Name: (6-31+G(D) AUX)
    Role: JKFIT
    Keyword: DF_BASIS_SCF
    atoms 1-4  entry C          line   194 file /Users/blink/psi4conda/share/psi4/basis/heavy-aug-cc-pvdz-jkfit.gbs 
    atoms 5-10 entry H          line   116 file /Users/blink/psi4conda/share/psi4/basis/heavy-aug-cc-pvdz-jkfit.gbs 

   => Loading Basis Set <=

    Name: 6-31+G(D)
    Role: ORBITAL
    Keyword: BASIS
    atoms 1-4  entry C          line   119 file /Users/blink/psi4conda/share/psi4/basis/6-31pg_d_.gbs 
    atoms 5-10 entry H          line    46 file /Users/blink/psi4conda/share/psi4/basis/6-31pg_d_.gbs 

  Reading orbitals from file /tmp/23_Butane_PES_1.default.56957.180.npy, no projection.

  ==> Integral Setup <==

  DFHelper Memory: AOs need 0.036 GiB; user supplied 2.277 GiB. 
  Using in-core AOs.

  ==> MemDFJK: Density-Fitted J/K Matrices <==

    J tasked:                   Yes
    K tasked:                   Yes
    wK tasked:                   No
    OpenMP threads:               4
    Memory [MiB]:              2331
    Algorithm:                 Core
    Schwarz Cutoff:           1E-12
    Mask sparsity (%):       0.0775
    Fitting Condition:        1E-10

   => Auxiliary Basis Set <=

  Basis Set: (6-31+G(D) AUX)
    Blend: HEAVY-AUG-CC-PVDZ-JKFIT
    Number of shells: 166
    Number of basis functions: 554
    Number of Cartesian functions: 554
    Spherical Harmonics?: false
    Max angular momentum: 3

  Cached 100.0% of DFT collocation blocks in 0.517 [GiB].

  Minimum eigenvalue in the overlap matrix is 1.8368491204E-04.
  Reciprocal condition number of the overlap matrix is 2.2255505224E-05.
    Using symmetric orthogonalization.

  ==> Pre-Iterations <==

  SCF Guess: Orbitals guess was supplied from a previous computation.

   -------------------------------------------------------
    Irrep   Nso     Nmo     Nalpha   Nbeta   Ndocc  Nsocc
   -------------------------------------------------------
     A         44      44       8       8       8       0
     B         44      44       7       7       7       0
   -------------------------------------------------------
    Total      88      88      15      15      15       0
   -------------------------------------------------------

  ==> Iterations <==

                           Total Energy        Delta E     RMS |[F,P]|

   @DF-RKS iter   0:  -155.86576290681785   -1.55866e+02   8.81337e-04 
   @DF-RKS iter   1:  -155.86437831104189    1.38460e-03   1.78965e-04 DIIS/ADIIS
   @DF-RKS iter   2:  -155.86435470116209    2.36099e-05   2.57895e-04 DIIS/ADIIS
   @DF-RKS iter   3:  -155.86449911075664   -1.44410e-04   4.01976e-05 DIIS
   @DF-RKS iter   4:  -155.86450311580819   -4.00505e-06   6.29180e-06 DIIS
   @DF-RKS iter   5:  -155.86450350760558   -3.91797e-07   7.87490e-07 DIIS
   @DF-RKS iter   6:  -155.86450350934084   -1.73526e-09   2.31950e-07 DIIS
   @DF-RKS iter   7:  -155.86450350948436   -1.43530e-10   5.61315e-08 DIIS
   @DF-RKS iter   8:  -155.86450350949048   -6.11067e-12   1.54963e-08 DIIS
   @DF-RKS iter   9:  -155.86450350949085   -3.69482e-13   1.92272e-09 DIIS
  Energy and wave function converged.


  ==> Post-Iterations <==

   Electrons on quadrature grid:
      Ntotal   =   29.9999716913 ; deviation = -2.831e-05 

    Orbital Energies [Eh]
    ---------------------

    Doubly Occupied:                                                      

       1A    -10.193305     1B    -10.193297     2A    -10.180672  
       2B    -10.180075     3A     -0.839259     3B     -0.694724  
       4A     -0.632790     4B     -0.536505     5A     -0.496431  
       5B     -0.439879     6A     -0.425573     6B     -0.380522  
       7A     -0.370424     7B     -0.251086     8A     -0.246319  

    Virtual:                                                              

       8B     -0.035738     9A      0.006996    10A      0.031655  
      11A      0.038020     9B      0.046750    10B      0.056892  
      11B      0.074467    12A      0.083548    13A      0.100289  
      14A      0.101549    12B      0.102285    15A      0.124848  
      13B      0.139656    14B      0.153103    16A      0.153261  
      15B      0.173718    16B      0.179108    17A      0.179681  
      18A      0.221951    17B      0.240206    18B      0.262519  
      19A      0.277400    19B      0.283513    20A      0.305320  
      21A      0.319923    20B      0.364174    21B      0.436056  
      22A      0.596928    22B      0.671889    23A      0.689216  
      23B      0.698635    24A      0.708079    24B      0.734628  
      25A      0.739323    25B      0.744392    26A      0.760475  
      26B      0.845937    27A      0.866021    27B      0.885174  
      28A      0.939113    29A      0.982239    28B      0.984374  
      29B      1.036359    30A      1.061326    30B      1.096549  
      31A      1.109552    31B      1.132765    32A      1.171799  
      32B      1.258537    33A      1.473850    33B      1.499489  
      34A      1.737186    34B      1.764953    35A      1.850032  
      35B      1.890377    36A      1.942329    36B      2.032149  
      37A      2.054862    37B      2.059648    38A      2.149944  
      38B      2.155707    39A      2.207468    39B      2.404519  
      40A      2.473305    41A      2.530054    40B      2.569351  
      42A      2.663041    41B      2.832664    42B      2.920526  
      43B      4.210194    43A      4.231525    44A      4.295780  
      44B      4.464559  

    Final Occupation by Irrep:
              A     B 
    DOCC [     8,    7 ]
    NA   [     8,    7 ]
    NB   [     8,    7 ]

  @DF-RKS Final Energy:  -155.86450350949085

   => Energetics <=

    Nuclear Repulsion Energy =            109.5725831831250616
    One-Electron Energy =                -424.9898695035005858
    Two-Electron Energy =                 178.7744999634394674
    DFT Exchange-Correlation Energy =     -19.2217171525547812
    Empirical Dispersion Energy =           0.0000000000000000
    VV10 Nonlocal Energy =                  0.0000000000000000
    Total Energy =                       -155.8645035094908451

Computation Completed


Properties will be evaluated at   0.000000,   0.000000,   0.000000 [a0]

Properties computed using the SCF density matrix


 Multipole Moments:

 ------------------------------------------------------------------------------------
     Multipole            Electronic (a.u.)      Nuclear  (a.u.)        Total (a.u.)
 ------------------------------------------------------------------------------------

 L = 1.  Multiply by 2.5417464519 to convert [e a0] to [Debye]
 Dipole X            :          0.0000000            0.0000000            0.0000000
 Dipole Y            :          0.0000000            0.0000000            0.0000000
 Dipole Z            :          1.1864562           -1.2931039           -0.1066477
 Magnitude           :                                                    0.1066477

 ------------------------------------------------------------------------------------

*** tstop() called on Barrys-MacBook-Pro.local at Thu May 30 21:27:50 2024
Module time:
	user time   =      10.55 seconds =       0.18 minutes
	system time =       0.63 seconds =       0.01 minutes
	total time  =          3 seconds =       0.05 minutes
Total time:
	user time   =    1299.36 seconds =      21.66 minutes
	system time =      60.27 seconds =       1.00 minutes
	total time  =        767 seconds =      12.78 minutes

*** tstart() called on Barrys-MacBook-Pro.local
*** at Thu May 30 21:27:50 2024


         ------------------------------------------------------------
                                   SCF GRAD                          
                          Rob Parrish, Justin Turney,                
                       Andy Simmonett, and Alex Sokolov              
         ------------------------------------------------------------

  ==> Geometry <==

    Molecular point group: c2
    Full point group: C2

    Geometry (in Angstrom), charge = 0, multiplicity = 1:

       Center              X                  Y                   Z               Mass       
    ------------   -----------------  -----------------  -----------------  -----------------
         C            1.058578407884     0.255854312407    -0.639367150998    12.000000000000
         C            0.692875061898    -0.003639374671     0.702533123040    12.000000000000
         C           -0.692875061898     0.003639374671     0.702533123040    12.000000000000
         C           -1.058578407884    -0.255854312407    -0.639367150998    12.000000000000
         H            1.954118914541    -0.169414062518    -1.105020999022     1.007825032230
         H            0.692266109841     1.153663867851    -1.124531509251     1.007825032230
         H            1.378727517184    -0.262528786763     1.508416125918     1.007825032230
         H           -1.378727517184     0.262528786763     1.508416125918     1.007825032230
         H           -1.954118914541     0.169414062518    -1.105020999022     1.007825032230
         H           -0.692266109841    -1.153663867851    -1.124531509251     1.007825032230

  Nuclear repulsion =  109.572583183125062

  ==> Basis Set <==

  Basis Set: 6-31+G(D)
    Blend: 6-31+G(D)
    Number of shells: 44
    Number of basis functions: 88
    Number of Cartesian functions: 88
    Spherical Harmonics?: false
    Max angular momentum: 2

  ==> DFJKGrad: Density-Fitted SCF Gradients <==

    Gradient:                    1
    J tasked:                  Yes
    K tasked:                  Yes
    wK tasked:                  No
    OpenMP threads:              4
    Integrals threads:           4
    Memory [MiB]:             2861
    Schwarz Cutoff:          1E-12
    Fitting Condition:       1E-10

   => Auxiliary Basis Set <=

  Basis Set: (6-31+G(D) AUX)
    Blend: HEAVY-AUG-CC-PVDZ-JKFIT
    Number of shells: 166
    Number of basis functions: 554
    Number of Cartesian functions: 554
    Spherical Harmonics?: false
    Max angular momentum: 3

  ==> DFT Potential <==

   => LibXC <=

    Version 6.2.2
    S. Lehtola, C. Steigemann, M. J.T. Oliveira, and M. A.L. Marques.,  SoftwareX 7, 1–5 (2018) (10.1016/j.softx.2017.11.002)

   => Composite Functional: B3PW91 <= 

    B3PW91 Hyb-GGA Exchange-Correlation Functional

    A. D. Becke.,  J. Chem. Phys. 98, 5648 (1993) (10.1063/1.464913)

    Deriv               =              1
    GGA                 =           TRUE
    Meta                =          FALSE

    Exchange Hybrid     =           TRUE
    MP2 Hybrid          =          FALSE

   => Exchange Functionals <=

    0.0800   Slater exchange
    0.7200         Becke 88

   => Exact (HF) Exchange <=

    0.2000               HF 

   => Correlation Functionals <=

    0.1900    Perdew & Wang
    0.8100   Perdew & Wang 91

   => LibXC Density Thresholds  <==

    XC_HYB_GGA_XC_B3PW91:  1.00E-15 

   => Molecular Quadrature <=

    Radial Scheme          =       TREUTLER
    Pruning Scheme         =           NONE
    Nuclear Scheme         =       TREUTLER

    Blocking Scheme        =         OCTREE
    BS radius alpha        =              1
    Pruning alpha          =              1
    Radial Points          =             75
    Spherical Points       =            302
    Total Points           =         216102
    Total Blocks           =           1650
    Max Points             =            256
    Max Functions          =             88
    Weights Tolerance      =       1.00E-15


  -Total Gradient:
     Atom            X                  Y                   Z
    ------   -----------------  -----------------  -----------------
       1       -0.007891585804    -0.001468059359    -0.003183130775
       2       -0.001749172729     0.000894049374     0.002987506337
       3        0.001749172729    -0.000894049374     0.002987506337
       4        0.007891585804     0.001468059359    -0.003183130775
       5       -0.001158919144    -0.000814647176    -0.000699210445
       6        0.000826760045     0.000895478507     0.000632823971
       7        0.000105956146     0.000737446867     0.000265768955
       8       -0.000105956146    -0.000737446867     0.000265768955
       9        0.001158919144     0.000814647176    -0.000699210445
      10       -0.000826760045    -0.000895478507     0.000632823971


*** tstop() called on Barrys-MacBook-Pro.local at Thu May 30 21:27:51 2024
Module time:
	user time   =       3.28 seconds =       0.05 minutes
	system time =       0.11 seconds =       0.00 minutes
	total time  =          1 seconds =       0.02 minutes
Total time:
	user time   =    1302.65 seconds =      21.71 minutes
	system time =      60.38 seconds =       1.01 minutes
	total time  =        768 seconds =      12.80 minutes

    			-----------------------------------------

    			 OPTKING 3.0: for geometry optimizations 

    			     By R.A. King, Bethel University     

    			        with contributions from          

    			    A.V. Copan, J. Cayton, A. Heide      

    			-----------------------------------------

    
	                            ===> Fragment 1 <== 

	 Z (Atomic Numbers)          Masses                          Geom                  
	       6.000000            12.000000          2.00042327  0.48349458 -1.20822881   
	       6.000000            12.000000          1.30934411 -0.00687742  1.32759520   
	       6.000000            12.000000         -1.30934411  0.00687742  1.32759520   
	       6.000000            12.000000         -2.00042327 -0.48349458 -1.20822881   
	       1.000000             1.007825          3.69274957 -0.32014618 -2.08818705   
	       1.000000             1.007825          1.30819335  2.18010875 -2.12505657   
	       1.000000             1.007825          2.60541741 -0.49610751  2.85049336   
	       1.000000             1.007825         -2.60541741  0.49610751  2.85049336   
	       1.000000             1.007825         -3.69274957  0.32014618 -2.08818705   
	       1.000000             1.007825         -1.30819335 -2.18010875 -2.12505657   

	 - Coordinate -           - BOHR/RAD -       - ANG/DEG -
	 R(1,2)           =         2.673660           1.414840
	 R(1,5)           =         2.069815           1.095299
	 R(1,6)           =         2.048964           1.084265
	 R(2,3)           =         2.618724           1.385769
	 R(2,7)           =         2.058730           1.089433
	 R(3,4)           =         2.673660           1.414840
	 R(3,8)           =         2.058730           1.089433
	 R(4,9)           =         2.069815           1.095299
	 R(4,10)          =         2.048964           1.084265
	 B(1,2,3)         =         1.831241         104.922360
	 B(1,2,7)         =         2.192538         125.623191
	 B(2,1,5)         =         2.145214         122.911722
	 B(2,1,6)         =         2.081665         119.270603
	 B(2,3,4)         =         1.831241         104.922360
	 B(2,3,8)         =         2.253366         129.108379
	 B(3,2,7)         =         2.253366         129.108379
	 B(3,4,9)         =         2.145214         122.911722
	 B(3,4,10)        =         2.081665         119.270603
	 B(4,3,8)         =         2.192538         125.623191
	 B(5,1,6)         =         1.990506         114.047575
	 B(9,4,10)        =         1.990506         114.047575
	 D(1,2,3,4)       =         0.384794          22.047062
	 D(1,2,3,8)       =        -2.642421        -151.399581
	 D(2,3,4,9)       =        -2.564291        -146.923077
	 D(2,3,4,10)      =         0.982029          56.266118
	 D(3,2,1,5)       =        -2.564291        -146.923077
	 D(3,2,1,6)       =         0.982029          56.266118
	 D(4,3,2,7)       =        -2.642421        -151.399581
	 D(5,1,2,7)       =         0.468138          26.822359
	 D(6,1,2,7)       =        -2.268726        -129.988445
	 D(7,2,3,8)       =         0.613549          35.153776
	 D(8,3,4,9)       =         0.468138          26.822359
	 D(8,3,4,10)      =        -2.268726        -129.988445
