[Molden Format]

[FREQ]
        -732.1041257386
         472.6671713077
         649.7879467882
         706.4803816426
         732.8762104208
         886.3719608725
         903.0316978104
         930.6542080319
         962.8023291344
        1017.2066748386
        1040.5545064633
        1129.3912641976
        1179.9444663373
        1265.6007057411
        1400.8199988926
        1535.0236388411
        1544.1388763284
        1554.1764823128
        3102.6556031146
        3103.0507803122
        3175.1389374370
        3194.9497882115
        3236.4103253951
        3237.0823570552

[FR-COORD]
C          1.9660091966        0.4817831843       -1.2238802211
C          1.3031850025       -0.0001514191        1.3378283675
C         -1.3031850025        0.0001514191        1.3378283675
C         -1.9660091966       -0.4817831843       -1.2238802211
H          3.6353803437       -0.3501496471       -2.1242975044
H          1.3437167183        2.2298941254       -2.0954254257
H          2.6109986446       -0.4512683751        2.8623909095
H         -2.6109986446        0.4512683751        2.8623909095
H         -3.6353803437        0.3501496471       -2.1242975044
H         -1.3437167183       -2.2298941254       -2.0954254257

[FR-NORM-COORD]
vibration 1
           0.2000352129        0.0392200281        0.0797230400
           0.0368231665       -0.0220429842       -0.0738031435
          -0.0368231665        0.0220429842       -0.0738031435
          -0.2000352129       -0.0392200281        0.0797230400
           0.3501034470        0.2335350543        0.1967271669
          -0.2547104773       -0.2624679980       -0.1853858442
          -0.0255587902       -0.2313149962       -0.0818285167
           0.0255587902        0.2313149962       -0.0818285167
          -0.3501034470       -0.2335350543        0.1967271669
           0.2547104773        0.2624679980       -0.1853858442
vibration 2
           0.0767986760       -0.0846751154       -0.0204917345
          -0.0140572218        0.1790632521        0.0203331683
           0.0140572218       -0.1790632521        0.0203331683
          -0.0767986760        0.0846751154       -0.0204917345
           0.0925677355       -0.2609350043        0.1721557910
           0.1679162923       -0.1770344325       -0.2722039835
          -0.0106908275        0.4510062545        0.1019362134
           0.0106908275       -0.4510062545        0.1019362134
          -0.0925677355        0.2609350043        0.1721557910
          -0.1679162923        0.1770344325       -0.2722039835
vibration 3
          -0.0229590178       -0.0142631188        0.0163468246
           0.0298775588       -0.0464220795        0.0256240827
           0.0298775588       -0.0464220795       -0.0256240827
          -0.0229590178       -0.0142631188       -0.0163468246
           0.1645522735        0.3657246323        0.0112138658
          -0.3087546194       -0.0922300443        0.0651970781
           0.0618244630        0.4490736711        0.1440984635
           0.0618244630        0.4490736711       -0.1440984635
           0.1645522735        0.3657246323       -0.0112138658
          -0.3087546194       -0.0922300443       -0.0651970781
vibration 4
           0.0866229421        0.0483337768       -0.0251548658
          -0.0281928684       -0.0417506703       -0.0127133513
           0.0281928684        0.0417506703       -0.0127133513
          -0.0866229421       -0.0483337768       -0.0251548658
           0.1563520448        0.0563006280        0.0894921275
           0.4796513132        0.3323358342        0.2568718729
          -0.0904523520        0.1600011152        0.1045263728
           0.0904523520       -0.1600011152        0.1045263728
          -0.1563520448       -0.0563006280        0.0894921275
          -0.4796513132       -0.3323358342        0.2568718729
vibration 5
          -0.0948215739       -0.0273783774        0.0775313964
           0.1253508504        0.0378439460        0.1614275791
           0.1253508504        0.0378439460       -0.1614275791
          -0.0948215739       -0.0273783774       -0.0775313964
          -0.3889504354       -0.2161091030       -0.2911742352
           0.0055307849        0.1195830052        0.3064059643
           0.0199127847       -0.0280856338        0.2210784262
           0.0199127847       -0.0280856338       -0.2210784262
          -0.3889504354       -0.2161091030        0.2911742352
           0.0055307849        0.1195830052       -0.3064059643
vibration 6
          -0.0069231861       -0.0448545518       -0.0060149677
          -0.0207380515       -0.1032923774       -0.0083392548
           0.0207380515        0.1032923774       -0.0083392548
           0.0069231861        0.0448545518       -0.0060149677
           0.0816398571        0.2112026924       -0.0682022165
          -0.2643911099       -0.1261852479        0.0292077704
          -0.0571332896        0.5448008052        0.2099077133
           0.0571332896       -0.5448008052        0.2099077133
          -0.0816398571       -0.2112026924       -0.0682022165
           0.2643911099        0.1261852479        0.0292077704
vibration 7
           0.0424431283        0.0287480152       -0.0440689263
          -0.0467196923       -0.0642051662       -0.0278608160
          -0.0467196923       -0.0642051662        0.0278608160
           0.0424431283        0.0287480152        0.0440689263
          -0.1717998056       -0.2410447820       -0.1975294103
           0.2684836792        0.1936975982        0.1124493472
          -0.0457635584        0.4695294068        0.1300534803
          -0.0457635584        0.4695294068       -0.1300534803
          -0.1717998056       -0.2410447820        0.1975294103
           0.2684836792        0.1936975982       -0.1124493472
vibration 8
          -0.0922290349       -0.0965637865       -0.0143764920
           0.0034326816        0.0352659561       -0.0176712783
          -0.0034326816       -0.0352659561       -0.0176712783
           0.0922290349        0.0965637865       -0.0143764920
           0.3695277008        0.3890750011        0.3737117741
           0.0822181671        0.0347936751        0.1272273051
           0.0699355300       -0.0975254144       -0.1193517685
          -0.0699355300        0.0975254144       -0.1193517685
          -0.3695277008       -0.3890750011        0.3737117741
          -0.0822181671       -0.0347936751        0.1272273051
vibration 9
          -0.0625727797       -0.0727590278       -0.0446809241
           0.0101357660        0.0304234724       -0.0130473921
           0.0101357660        0.0304234724        0.0130473921
          -0.0625727797       -0.0727590278        0.0446809241
           0.2260677220        0.2209704108        0.2005947088
           0.3759146956        0.2855972900        0.3507616760
           0.0223761218       -0.0024854966       -0.0316980036
           0.0223761218       -0.0024854966        0.0316980036
           0.2260677220        0.2209704108       -0.2005947088
           0.3759146956        0.2855972900       -0.3507616760
vibration 10
          -0.0627040770        0.0704659490        0.0419987849
          -0.0157973367       -0.0832647830       -0.0355520882
           0.0157973367        0.0832647830       -0.0355520882
           0.0627040770       -0.0704659490        0.0419987849
          -0.0051277100       -0.2392703005        0.4247064999
           0.1503493315       -0.0453417824       -0.3437881989
           0.2126083558        0.1741388681       -0.1576780139
          -0.2126083558       -0.1741388681       -0.1576780139
           0.0051277100        0.2392703005        0.4247064999
          -0.1503493315        0.0453417824       -0.3437881989
vibration 11
          -0.0784853453        0.0408943882        0.0782169121
           0.0394447217       -0.0377214287       -0.0120523219
           0.0394447217       -0.0377214287        0.0120523219
          -0.0784853453        0.0408943882       -0.0782169121
          -0.0253382099       -0.2324188139        0.4181474300
           0.1668261287       -0.0145334091       -0.2062959505
           0.3233620979        0.2091723376       -0.1857462001
           0.3233620979        0.2091723376        0.1857462001
          -0.0253382099       -0.2324188139       -0.4181474300
           0.1668261287       -0.0145334091        0.2062959505
vibration 12
           0.0456268329       -0.0192641803       -0.0094407390
           0.0738179685       -0.0084816249        0.0380410801
          -0.0738179685        0.0084816249        0.0380410801
          -0.0456268329        0.0192641803       -0.0094407390
          -0.0049356815        0.0376000352       -0.1578383759
           0.0172705628        0.0435713353        0.1354446660
           0.5607874341        0.1670255436       -0.3181456515
          -0.5607874341       -0.1670255436       -0.3181456515
           0.0049356815       -0.0376000352       -0.1578383759
          -0.0172705628       -0.0435713353        0.1354446660
vibration 13
           0.0467695683       -0.0487084198        0.0971615973
          -0.0498248995        0.0439739462       -0.0703630580
          -0.0498248995        0.0439739462        0.0703630580
           0.0467695683       -0.0487084198       -0.0971615973
          -0.1069328917       -0.0194900070       -0.1856075291
          -0.1746679723        0.0033741934        0.3845020555
           0.3179801697        0.0724883801       -0.3816278348
           0.3179801697        0.0724883801        0.3816278348
          -0.1069328917       -0.0194900070        0.1856075291
          -0.1746679723        0.0033741934       -0.3845020555
vibration 14
           0.0077099836        0.0394471418       -0.1528428586
           0.0711132798       -0.0560707087        0.1758164327
          -0.0711132798        0.0560707087        0.1758164327
          -0.0077099836       -0.0394471418       -0.1528428586
           0.1987565902        0.2027260100       -0.0006112148
           0.1265277923       -0.0735162419       -0.5028750743
           0.0061023669       -0.1676306112        0.2299438776
          -0.0061023669        0.1676306112        0.2299438776
          -0.1987565902       -0.2027260100       -0.0006112148
          -0.1265277923        0.0735162419       -0.5028750743
vibration 15
           0.0157396995       -0.0036503467       -0.0497093876
          -0.0733424025       -0.0136855168        0.1515025274
          -0.0733424025       -0.0136855168       -0.1515025274
           0.0157396995       -0.0036503467        0.0497093876
           0.0430810055        0.2169201321       -0.2555073994
           0.2221327425       -0.0052974014       -0.2468670131
           0.4206517688       -0.0052075735       -0.2593545436
           0.4206517688       -0.0052075735        0.2593545436
           0.0430810055        0.2169201321        0.2555073994
           0.2221327425       -0.0052974014        0.2468670131
vibration 16
          -0.0271689785       -0.0222240394        0.0950167736
           0.0231963506        0.0058524165       -0.0400678829
          -0.0231963506       -0.0058524165       -0.0400678829
           0.0271689785        0.0222240394        0.0950167736
          -0.0818688455        0.3208351915       -0.3483145591
           0.3932241392       -0.0538622616       -0.3112482692
          -0.0278130900        0.0373867521        0.0052957998
           0.0278130900       -0.0373867521        0.0052957998
           0.0818688455       -0.3208351915       -0.3483145591
          -0.3932241392        0.0538622616       -0.3112482692
vibration 17
          -0.0340352619       -0.0286872802        0.1095259909
           0.0223276280        0.0059894156       -0.0797043784
           0.0223276280        0.0059894156        0.0797043784
          -0.0340352619       -0.0286872802       -0.1095259909
          -0.0854391381        0.3255334799       -0.3317321266
           0.3667843987       -0.0767651471       -0.3028822343
          -0.1419444693        0.0214912514        0.0551904024
          -0.1419444693        0.0214912514       -0.0551904024
          -0.0854391381        0.3255334799        0.3317321266
           0.3667843987       -0.0767651471        0.3028822343
vibration 18
          -0.0455052612        0.0055150370        0.0208725115
           0.3484995772        0.0071909674       -0.0899503143
          -0.3484995772       -0.0071909674       -0.0899503143
           0.0455052612       -0.0055150370        0.0208725115
          -0.0584817204       -0.2100393692        0.2045358154
           0.0124724847        0.0908043081        0.1730303071
          -0.1779666895        0.1025686077        0.4449314410
           0.1779666895       -0.1025686077        0.4449314410
           0.0584817204        0.2100393692        0.2045358154
          -0.0124724847       -0.0908043081        0.1730303071
vibration 19
          -0.0389395074        0.0084449971        0.0331685799
           0.0044140704       -0.0002457003        0.0013317962
           0.0044140704       -0.0002457003       -0.0013317962
          -0.0389395074        0.0084449971       -0.0331685799
           0.5389764179       -0.2795134887       -0.2885769017
          -0.0780114682        0.1688697018       -0.0737776193
          -0.0498764855        0.0130161648       -0.0518453433
          -0.0498764855        0.0130161648        0.0518453433
           0.5389764179       -0.2795134887        0.2885769017
          -0.0780114682        0.1688697018        0.0737776193
vibration 20
          -0.0379703983        0.0075693028        0.0330356338
           0.0027788479       -0.0007323047        0.0010028565
          -0.0027788479        0.0007323047        0.0010028565
           0.0379703983       -0.0075693028        0.0330356338
           0.5380287141       -0.2781973832       -0.2888438769
          -0.0792703776        0.1782411877       -0.0778300934
          -0.0356874151        0.0149935964       -0.0386165021
           0.0356874151       -0.0149935964       -0.0386165021
          -0.5380287141        0.2781973832       -0.2888438769
           0.0792703776       -0.1782411877       -0.0778300934
vibration 21
          -0.0027280855       -0.0033687270        0.0068397061
          -0.0359204927        0.0133600604       -0.0448268384
          -0.0359204927        0.0133600604        0.0448268384
          -0.0027280855       -0.0033687270       -0.0068397061
           0.0412734615       -0.0243012417       -0.0254810445
          -0.0230308982        0.0582078299       -0.0267661639
           0.4419394366       -0.1528716825        0.5198054044
           0.4419394366       -0.1528716825       -0.5198054044
           0.0412734615       -0.0243012417        0.0254810445
          -0.0230308982        0.0582078299        0.0267661639
vibration 22
          -0.0031427182       -0.0018366807        0.0055655674
          -0.0444512932        0.0131877405       -0.0460850153
           0.0444512932       -0.0131877405       -0.0460850153
           0.0031427182        0.0018366807        0.0055655674
           0.0362985320       -0.0152877208       -0.0227008916
          -0.0134552286        0.0260587648       -0.0120721726
           0.4484708881       -0.1547753359        0.5172311878
          -0.4484708881        0.1547753359        0.5172311878
          -0.0362985320        0.0152877208       -0.0227008916
           0.0134552286       -0.0260587648       -0.0120721726
vibration 23
           0.0300916734       -0.0547296171        0.0178661753
           0.0033721693       -0.0003969718        0.0023015817
           0.0033721693       -0.0003969718       -0.0023015817
           0.0300916734       -0.0547296171       -0.0178661753
          -0.1513124242        0.0700841097        0.0875952623
          -0.2147645817        0.5765721801       -0.2812483970
          -0.0323712360        0.0097265597       -0.0384773088
          -0.0323712360        0.0097265597        0.0384773088
          -0.1513124242        0.0700841097       -0.0875952623
          -0.2147645817        0.5765721801        0.2812483970
vibration 24
           0.0306002826       -0.0553319002        0.0166277384
           0.0014049919       -0.0005969435        0.0002190907
          -0.0014049919        0.0005969435        0.0002190907
          -0.0306002826        0.0553319002        0.0166277384
          -0.1546121723        0.0739866565        0.0923292061
          -0.2151394084        0.5768649389       -0.2800555034
          -0.0113843199        0.0059302059       -0.0128660109
           0.0113843199       -0.0059302059       -0.0128660109
           0.1546121723       -0.0739866565        0.0923292061
           0.2151394084       -0.5768649389       -0.2800555034
