[Molden Format]

[FREQ]
        -732.0706261140
         472.4917901542
         649.6413652227
         706.5063148204
         732.8541322330
         886.3607322405
         902.9530769817
         930.5956450302
         962.7295568969
        1017.1200546533
        1040.4785009048
        1129.6594060002
        1179.8267107865
        1265.6186487918
        1400.7023496012
        1535.1595132886
        1544.0360378157
        1554.5240404879
        3102.7278453462
        3103.2356412257
        3175.1714046272
        3195.7276912629
        3236.4798409458
        3237.0822780624

[FR-COORD]
C          1.9660504803        0.4818139769       -1.2239281450
C          1.3031382796        0.0000000000        1.3379286405
C         -1.3031382796       -0.0000000000        1.3379286405
C         -1.9660504803       -0.4818139769       -1.2239281450
H          3.6352565753       -0.3504465011       -2.1243320210
H          1.3438293438        2.2298806748       -2.0955898855
H          2.6110041884       -0.4508274479        2.8625375368
H         -2.6110041884        0.4508274479        2.8625375368
H         -3.6352565753        0.3504465011       -2.1243320210
H         -1.3438293438       -2.2298806748       -2.0955898855

[FR-NORM-COORD]
vibration 1
           0.2000273533        0.0391951918        0.0797025430
           0.0368644906       -0.0220183266       -0.0737822711
          -0.0368644906        0.0220183266       -0.0737822711
          -0.2000273533       -0.0391951918        0.0797025430
           0.3501645559        0.2334628374        0.1966184002
          -0.2548708220       -0.2624431611       -0.1853701419
          -0.0253694346       -0.2313246841       -0.0817399213
           0.0253694346        0.2313246841       -0.0817399213
          -0.3501645559       -0.2334628374        0.1966184002
           0.2548708220        0.2624431611       -0.1853701419
vibration 2
           0.0767942045       -0.0847003515       -0.0204809348
          -0.0140578980        0.1791508734        0.0203294904
           0.0140578980       -0.1791508734        0.0203294904
          -0.0767942045        0.0847003515       -0.0204809348
           0.0925616416       -0.2609514843        0.1721310504
           0.1680620924       -0.1770113785       -0.2722597604
          -0.0107753877        0.4508892885        0.1019319335
           0.0107753877       -0.4508892885        0.1019319335
          -0.0925616416        0.2609514843        0.1721310504
          -0.1680620924        0.1770113785       -0.2722597604
vibration 3
          -0.0229832334       -0.0142814706        0.0163958555
           0.0298975654       -0.0463977972        0.0256304743
           0.0298975654       -0.0463977972       -0.0256304743
          -0.0229832334       -0.0142814706       -0.0163958555
           0.1646033221        0.3657307930        0.0112729393
          -0.3088332680       -0.0922593831        0.0652560922
           0.0619021798        0.4490262363        0.1439115007
           0.0619021798        0.4490262363       -0.1439115007
           0.1646033221        0.3657307930       -0.0112729393
          -0.3088332680       -0.0922593831       -0.0652560922
vibration 4
           0.0866495110        0.0483503767       -0.0251698993
          -0.0281195791       -0.0417435231       -0.0126852945
           0.0281195791        0.0417435231       -0.0126852945
          -0.0866495110       -0.0483503767       -0.0251698993
           0.1564458892        0.0562350922        0.0896814359
           0.4797762491        0.3323642764        0.2568399764
          -0.0900137557        0.1598903419        0.1042138953
           0.0900137557       -0.1598903419        0.1042138953
          -0.1564458892       -0.0562350922        0.0896814359
          -0.4797762491       -0.3323642764        0.2568399764
vibration 5
          -0.0948152480       -0.0273779798        0.0775293536
           0.1253385081        0.0378457060        0.1614184558
           0.1253385081        0.0378457060       -0.1614184558
          -0.0948152480       -0.0273779798       -0.0775293536
          -0.3890120170       -0.2162017303       -0.2911019421
           0.0056288592        0.1196019441        0.3063553138
           0.0199479292       -0.0280376367        0.2210519459
           0.0199479292       -0.0280376367       -0.2210519459
          -0.3890120170       -0.2162017303        0.2911019421
           0.0056288592        0.1196019441       -0.3063553138
vibration 6
          -0.0070169298       -0.0449057414       -0.0060258784
          -0.0207623255       -0.1032998655       -0.0083758185
           0.0207623255        0.1032998655       -0.0083758185
           0.0070169298        0.0449057414       -0.0060258784
           0.0821180471        0.2113744473       -0.0674283848
          -0.2640527804       -0.1261067542        0.0292011193
          -0.0571302458        0.5450108616        0.2097058025
           0.0571302458       -0.5450108616        0.2097058025
          -0.0821180471       -0.2113744473       -0.0674283848
           0.2640527804        0.1261067542        0.0292011193
vibration 7
           0.0424312383        0.0286869221       -0.0441479863
          -0.0467149538       -0.0641928821       -0.0278554519
          -0.0467149538       -0.0641928821        0.0278554519
           0.0424312383        0.0286869221        0.0441479863
          -0.1715999393       -0.2406526814       -0.1975268273
           0.2685859452        0.1938326559        0.1126870353
          -0.0459805394        0.4695834092        0.1301572211
          -0.0459805394        0.4695834092       -0.1301572211
          -0.1715999393       -0.2406526814        0.1975268273
           0.2685859452        0.1938326559       -0.1126870353
vibration 8
          -0.0922069904       -0.0965960014       -0.0144006969
           0.0034998698        0.0354685002       -0.0176352034
          -0.0034998698       -0.0354685002       -0.0176352034
           0.0922069904        0.0965960014       -0.0144006969
           0.3695769973        0.3890788903        0.3733278985
           0.0822767501        0.0349906632        0.1274522349
           0.0697776648       -0.0984262873       -0.1193341567
          -0.0697776648        0.0984262873       -0.1193341567
          -0.3695769973       -0.3890788903        0.3733278985
          -0.0822767501       -0.0349906632        0.1274522349
vibration 9
          -0.0625919063       -0.0727852651       -0.0446936698
           0.0101590451        0.0304711367       -0.0130191737
           0.0101590451        0.0304711367        0.0130191737
          -0.0625919063       -0.0727852651        0.0446936698
           0.2262675474        0.2212100558        0.2005590976
           0.3758015734        0.2855210807        0.3506818273
           0.0222399749       -0.0029040582       -0.0316400308
           0.0222399749       -0.0029040582        0.0316400308
           0.2262675474        0.2212100558       -0.2005590976
           0.3758015734        0.2855210807       -0.3506818273
vibration 10
          -0.0628000148        0.0703889918        0.0419570856
          -0.0158029679       -0.0831104919       -0.0355610894
           0.0158029679        0.0831104919       -0.0355610894
           0.0628000148       -0.0703889918        0.0419570856
          -0.0048447909       -0.2390981130        0.4253096266
           0.1503231427       -0.0454270836       -0.3437140448
           0.2122723016        0.1734782431       -0.1577516132
          -0.2122723016       -0.1734782431       -0.1577516132
           0.0048447909        0.2390981130        0.4253096266
          -0.1503231427        0.0454270836       -0.3437140448
vibration 11
          -0.0784563126        0.0408691719        0.0782020778
           0.0394000168       -0.0377220454       -0.0121218101
           0.0394000168       -0.0377220454        0.0121218101
          -0.0784563126        0.0408691719       -0.0782020778
          -0.0254113529       -0.2324541515        0.4180787406
           0.1671121605       -0.0143386050       -0.2060088143
           0.3233358161        0.2093204601       -0.1858310830
           0.3233358161        0.2093204601        0.1858310830
          -0.0254113529       -0.2324541515       -0.4180787406
           0.1671121605       -0.0143386050        0.2060088143
vibration 12
           0.0454726301       -0.0193218405       -0.0091685187
           0.0735359091       -0.0084243118        0.0378276525
          -0.0735359091        0.0084243118        0.0378276525
          -0.0454726301        0.0193218405       -0.0091685187
          -0.0053479796        0.0375871095       -0.1578690558
           0.0172499258        0.0432820529        0.1352931133
           0.5605375664        0.1672647634       -0.3186634541
          -0.5605375664       -0.1672647634       -0.3186634541
           0.0053479796       -0.0375871095       -0.1578690558
          -0.0172499258       -0.0432820529        0.1352931133
vibration 13
           0.0467925538       -0.0487302903        0.0971338009
          -0.0498439692        0.0439922421       -0.0704060519
          -0.0498439692        0.0439922421        0.0704060519
           0.0467925538       -0.0487302903       -0.0971338009
          -0.1069740794       -0.0195153462       -0.1857445198
          -0.1745193136        0.0035574549        0.3846738314
           0.3178260732        0.0723730194       -0.3815807791
           0.3178260732        0.0723730194        0.3815807791
          -0.1069740794       -0.0195153462        0.1857445198
          -0.1745193136        0.0035574549       -0.3846738314
vibration 14
           0.0078109048        0.0393800278       -0.1528328956
           0.0710851299       -0.0560896248        0.1760019553
          -0.0710851299        0.0560896248        0.1760019553
          -0.0078109048       -0.0393800278       -0.1528328956
           0.1985845418        0.2033428971       -0.0015488807
           0.1269412846       -0.0737374157       -0.5031242826
           0.0073872599       -0.1672636780        0.2288031396
          -0.0073872599        0.1672636780        0.2288031396
          -0.1985845418       -0.2033428971       -0.0015488807
          -0.1269412846        0.0737374157       -0.5031242826
vibration 15
           0.0157561488       -0.0036430053       -0.0497351390
          -0.0733633919       -0.0136848845        0.1515375896
          -0.0733633919       -0.0136848845       -0.1515375896
           0.0157561488       -0.0036430053        0.0497351390
           0.0431002880        0.2167852778       -0.2554104092
           0.2220136888       -0.0053058034       -0.2467639297
           0.4208055972       -0.0051592585       -0.2594786697
           0.4208055972       -0.0051592585        0.2594786697
           0.0431002880        0.2167852778        0.2554104092
           0.2220136888       -0.0053058034        0.2467639297
vibration 16
          -0.0278441110       -0.0222207446        0.0957534164
           0.0270892233        0.0059395644       -0.0414113186
          -0.0270892233       -0.0059395644       -0.0414113186
           0.0278441110        0.0222207446        0.0957534164
          -0.0827049056        0.3194651947       -0.3472707008
           0.3947944419       -0.0528671934       -0.3104993922
          -0.0301242899        0.0386412471        0.0107280433
           0.0301242899       -0.0386412471        0.0107280433
           0.0827049056       -0.3194651947       -0.3472707008
          -0.3947944419        0.0528671934       -0.3104993922
vibration 17
          -0.0340243332       -0.0286734967        0.1094852454
           0.0223034508        0.0059832164       -0.0796376980
           0.0223034508        0.0059832164        0.0796376980
          -0.0340243332       -0.0286734967       -0.1094852454
          -0.0853675685        0.3255338542       -0.3318203228
           0.3667501851       -0.0768150218       -0.3029374149
          -0.1418240782        0.0214504479        0.0551506838
          -0.1418240782        0.0214504479       -0.0551506838
          -0.0853675685        0.3255338542        0.3318203228
           0.3667501851       -0.0768150218        0.3029374149
vibration 18
          -0.0440213890        0.0062460395        0.0172030457
           0.3442637062        0.0068473476       -0.0873238017
          -0.3442637062       -0.0068473476       -0.0873238017
           0.0440213890       -0.0062460395        0.0172030457
          -0.0551708082       -0.2184024606        0.2138721038
          -0.0008314021        0.0915265114        0.1814515790
          -0.1744535962        0.1003733891        0.4395921455
           0.1744535962       -0.1003733891        0.4395921455
           0.0551708082        0.2184024606        0.2138721038
           0.0008314021       -0.0915265114        0.1814515790
vibration 19
          -0.0389428998        0.0084714325        0.0331596351
           0.0044333192       -0.0002550636        0.0013624347
           0.0044333192       -0.0002550636       -0.0013624347
          -0.0389428998        0.0084714325       -0.0331596351
           0.5389479189       -0.2796163908       -0.2885789576
          -0.0779473746        0.1686837366       -0.0737133890
          -0.0501008802        0.0131017570       -0.0521261372
          -0.0501008802        0.0131017570        0.0521261372
           0.5389479189       -0.2796163908        0.2885789576
          -0.0779473746        0.1686837366        0.0737133890
vibration 20
          -0.0379452483        0.0075975196        0.0329683296
           0.0029981337       -0.0008100335        0.0012292627
          -0.0029981337        0.0008100335        0.0012292627
           0.0379452483       -0.0075975196        0.0329683296
           0.5377756916       -0.2783371517       -0.2886343488
          -0.0793210702        0.1782215346       -0.0777390096
          -0.0375587684        0.0156835929       -0.0408115153
           0.0375587684       -0.0156835929       -0.0408115153
          -0.5377756916        0.2783371517       -0.2886343488
           0.0793210702       -0.1782215346       -0.0777390096
vibration 21
          -0.0027668735       -0.0033281325        0.0068444053
          -0.0359212893        0.0133491266       -0.0448219746
          -0.0359212893        0.0133491266        0.0448219746
          -0.0027668735       -0.0033281325       -0.0068444053
           0.0416658335       -0.0245071327       -0.0256974548
          -0.0229593541        0.0579510352       -0.0266522281
           0.4419468475       -0.1527621617        0.5198180299
           0.4419468475       -0.1527621617       -0.5198180299
           0.0416658335       -0.0245071327        0.0256974548
          -0.0229593541        0.0579510352        0.0266522281
vibration 22
          -0.0034430851       -0.0015460628        0.0055696525
          -0.0443837721        0.0131510146       -0.0460314395
           0.0443837721       -0.0131510146       -0.0460314395
           0.0034430851        0.0015460628        0.0055696525
           0.0393590245       -0.0170340288       -0.0242467085
          -0.0130584530        0.0244039390       -0.0110912289
           0.4484252554       -0.1545614402        0.5171095038
          -0.4484252554        0.1545614402        0.5171095038
          -0.0393590245        0.0170340288       -0.0242467085
           0.0130584530       -0.0244039390       -0.0110912289
vibration 23
           0.0300759361       -0.0547299488        0.0178797082
           0.0033523104       -0.0003893223        0.0022752416
           0.0033523104       -0.0003893223       -0.0022752416
           0.0300759361       -0.0547299488       -0.0178797082
          -0.1511300252        0.0700233027        0.0874986389
          -0.2147642105        0.5766415207       -0.2813246644
          -0.0321301687        0.0096308943       -0.0381638989
          -0.0321301687        0.0096308943        0.0381638989
          -0.1511300252        0.0700233027       -0.0874986389
          -0.2147642105        0.5766415207        0.2813246644
vibration 24
           0.0305873269       -0.0553287527        0.0166277810
           0.0012260953       -0.0005531577        0.0000349087
          -0.0012260953        0.0005531577        0.0000349087
          -0.0305873269        0.0553287527        0.0166277810
          -0.1544942691        0.0738982008        0.0923014484
          -0.2152133728        0.5769589029       -0.2800857855
          -0.0094267555        0.0052820494       -0.0106154546
           0.0094267555       -0.0052820494       -0.0106154546
           0.1544942691       -0.0738982008        0.0923014484
           0.2152133728       -0.5769589029       -0.2800857855
