[Molden Format]

[FREQ]
        -141.4658123437
         -84.1659688437
         705.7844576096
         710.4549505830
        2209.6011182332
        3433.9975537375

[FR-COORD]
H         -1.8695404174        1.9366381977        0.0000000000
C         -0.6838814139        0.2883324947        0.0000000000
N          1.3473380715       -0.5355780189        0.0000000000

[FR-NORM-COORD]
vibration 1
          -0.0000000000       -0.0000000000       -0.9060688156
           0.0000000000       -0.0000000000       -0.2868657981
           0.0000000000        0.0000000000        0.3110423047
vibration 2
          -0.5939944716       -0.6609771903        0.0000000000
          -0.1098740498       -0.2969981784        0.0000000000
           0.1369078742        0.3020856348       -0.0000000000
vibration 3
           0.8077448091        0.5660757017       -0.0000000000
          -0.0834344159       -0.1248230298        0.0000000000
           0.0133647478        0.0662262511       -0.0000000000
vibration 4
           0.0000000000        0.0000000000        0.9830492020
          -0.0000000000       -0.0000000000       -0.1680640951
           0.0000000000        0.0000000000        0.0732715936
vibration 5
          -0.5294294030        0.5588658170       -0.0000000000
          -0.4314467638        0.1565214801        0.0000000000
           0.4078342633       -0.1743543397       -0.0000000000
vibration 6
          -0.6024472939        0.7892838296        0.0000000000
           0.0832248294       -0.0791156440       -0.0000000000
          -0.0279607527        0.0109924240        0.0000000000
