[Molden Format]

[FREQ]
       -1151.2298413019
        -311.8748045197
        -232.7254407359
         -35.1274067269
        2188.4619586581
        2799.3777501768

[FR-COORD]
H         -1.1260512372        1.8687906923        0.0000000000
C         -1.1260512372       -0.3138724236        0.0000000000
N          1.0460187146        0.1344744049        0.0000000000

[FR-NORM-COORD]
vibration 1
           0.9853405611        0.1225457722        0.0000000000
          -0.0381345206       -0.0844492513        0.0000000000
          -0.0382370782        0.0635493548       -0.0000000000
vibration 2
          -0.0000000000       -0.0000000000        0.9721578438
           0.0000000000       -0.0000000000        0.1387259932
          -0.0000000000        0.0000000000       -0.1888497431
vibration 3
           0.6912454048        0.4288901980        0.0000000000
          -0.1144650565        0.4157922042        0.0000000000
           0.0483412611       -0.3871830376       -0.0000000000
vibration 4
          -0.0000000000       -0.0000000000       -0.9440119562
          -0.0000000000       -0.0000000000        0.2809989660
          -0.0000000000       -0.0000000000       -0.1728612383
vibration 5
           0.2282575391       -0.0221258349       -0.0000000000
           0.7191088675        0.1323418938        0.0000000000
          -0.6326718026       -0.1118185731       -0.0000000000
vibration 6
          -0.1749687279        0.9819643700       -0.0000000000
           0.0163036503       -0.0687448632        0.0000000000
          -0.0013786930       -0.0117624112       -0.0000000000
