
    -----------------------------------------------------------------------
          Psi4: An Open-Source Ab Initio Electronic Structure Package
                               Psi4 1.9.1 release

                         Git: Rev {} zzzzzzz 


    D. G. A. Smith, L. A. Burns, A. C. Simmonett, R. M. Parrish,
    M. C. Schieber, R. Galvelis, P. Kraus, H. Kruse, R. Di Remigio,
    A. Alenaizan, A. M. James, S. Lehtola, J. P. Misiewicz, M. Scheurer,
    R. A. Shaw, J. B. Schriber, Y. Xie, Z. L. Glick, D. A. Sirianni,
    J. S. O'Brien, J. M. Waldrop, A. Kumar, E. G. Hohenstein,
    B. P. Pritchard, B. R. Brooks, H. F. Schaefer III, A. Yu. Sokolov,
    K. Patkowski, A. E. DePrince III, U. Bozkaya, R. A. King,
    F. A. Evangelista, J. M. Turney, T. D. Crawford, C. D. Sherrill,
    J. Chem. Phys. 152(18) 184108 (2020). https://doi.org/10.1063/5.0006002

                            Additional Code Authors
    E. T. Seidl, C. L. Janssen, E. F. Valeev, M. L. Leininger,
    J. F. Gonthier, R. M. Richard, H. R. McAlexander, M. Saitow, X. Wang,
    P. Verma, M. H. Lechner, A. Jiang, S. Behnle, A. G. Heide,
    M. F. Herbst, and D. L. Poole

             Previous Authors, Complete List of Code Contributors,
                       and Citations for Specific Modules
    https://github.com/psi4/psi4/blob/master/codemeta.json
    https://github.com/psi4/psi4/graphs/contributors
    http://psicode.org/psi4manual/master/introduction.html#citing-psifour

    -----------------------------------------------------------------------


    Psi4 started on: Thursday, 09 May 2024 02:21PM

    Process ID: 45084
    Host:       Barrys-MacBook-Pro.local
    PSIDATADIR: /Users/blink/psi4conda/share/psi4
    Memory:     953.7 MiB
    Threads:    4
      Threads set to 4 by Python driver.

Scratch directory: /tmp/
gradient() will perform analytic gradient computation.
   => Libint2 <=

    Primary   basis highest AM E, G, H:  5, 4, 3
    Auxiliary basis highest AM E, G, H:  6, 5, 4
    Onebody   basis highest AM E, G, H:  6, 5, 4
    Solid Harmonics ordering:            Gaussian

*** tstart() called on Barrys-MacBook-Pro.local
*** at Thu May  9 18:42:06 2024

   => Loading Basis Set <=

    Name: STO-3G
    Role: ORBITAL
    Keyword: BASIS
    atoms 1-2, 6, 9       entry C          line    61 file /Users/blink/psi4conda/share/psi4/basis/sto-3g.gbs 
    atoms 3-5, 7-8, 10-14 entry H          line    19 file /Users/blink/psi4conda/share/psi4/basis/sto-3g.gbs 


         ---------------------------------------------------------
                                   SCF
               by Justin Turney, Rob Parrish, Andy Simmonett
                          and Daniel G. A. Smith
                              RHF Reference
                        4 Threads,    953 MiB Core
         ---------------------------------------------------------

  ==> Geometry <==

    Molecular point group: c1
    Full point group: C1

    Geometry (in Angstrom), charge = 0, multiplicity = 1:

       Center              X                  Y                   Z               Mass       
    ------------   -----------------  -----------------  -----------------  -----------------
         C            0.618001450306    -0.357572144362    -1.836080926429    12.000000000000
         C            0.618001450306    -0.357572144362    -0.294990926429    12.000000000000
         H            0.618001450306     0.658064771610    -2.220621091984     1.007825032230
         H            1.498361245919    -0.865780648210    -2.218310934306     1.007825032230
         H           -0.261507810781    -0.865490937196    -2.220618663929     1.007825032230
         C           -0.617641366245     0.358236696254     0.294952696265    12.000000000000
         H            0.643696387533    -1.384603527211     0.064758878580     1.007825032230
         H            1.521719487087     0.131005020847     0.064811102413     1.007825032230
         C           -0.618336503894     0.356956596981     1.836121007869    12.000000000000
         H           -0.642771550737     1.385495703922    -0.064174454223     1.007825032230
         H           -1.521312360274    -0.129740820439    -0.065774014707     1.007825032230
         H           -1.497025518987     0.868050136157     2.218326011721     1.007825032230
         H           -0.622232400277    -0.658934800079     2.219954455390     1.007825032230
         H            0.262773036640     0.861351612279     2.221626668216     1.007825032230

  Running in c1 symmetry.

  Rotational constants: A =      0.77776  B =      0.11994  C =      0.11253 [cm^-1]
  Rotational constants: A =  23316.65012  B =   3595.76333  C =   3373.65649 [MHz]
  Nuclear repulsion =  130.240002513814261

  Charge       = 0
  Multiplicity = 1
  Electrons    = 34
  Nalpha       = 17
  Nbeta        = 17

  ==> Algorithm <==

  SCF Algorithm Type is DIRECT.
  DIIS enabled.
  MOM disabled.
  Fractional occupation disabled.
  Guess Type is SAD.
  Energy threshold   = 1.00e-08
  Density threshold  = 1.00e-08
  Integral threshold = 1.00e-08

  ==> Primary Basis <==

  -AO BASIS SET INFORMATION:
    Name                   = STO-3G
    Blend                  = STO-3G
    Total number of shells = 22
    Number of primitives   = 66
    Number of AO           = 30
    Number of SO           = 30
    Maximum AM             = 1
    Spherical Harmonics    = TRUE

  -Contraction Scheme:
    Atom   Type   All Primitives // Shells:
   ------ ------ --------------------------
       1     C     6s 3p // 2s 1p 
       2     C     6s 3p // 2s 1p 
       3     H     3s // 1s 
       4     H     3s // 1s 
       5     H     3s // 1s 
       6     C     6s 3p // 2s 1p 
       7     H     3s // 1s 
       8     H     3s // 1s 
       9     C     6s 3p // 2s 1p 
      10     H     3s // 1s 
      11     H     3s // 1s 
      12     H     3s // 1s 
      13     H     3s // 1s 
      14     H     3s // 1s 

   => Loading Basis Set <=

    Name: (STO-3G AUX)
    Role: JKFIT
    Keyword: DF_BASIS_SCF
    atoms 1-2, 6, 9       entry C          line   198 file /Users/blink/psi4conda/share/psi4/basis/def2-universal-jkfit.gbs 
    atoms 3-5, 7-8, 10-14 entry H          line    18 file /Users/blink/psi4conda/share/psi4/basis/def2-universal-jkfit.gbs 

  Starting with a DF guess...

  ==> Integral Setup <==

  DFHelper Memory: AOs need 0.005 GiB; user supplied 0.698 GiB. 
  Using in-core AOs.

  ==> MemDFJK: Density-Fitted J/K Matrices <==

    J tasked:                   Yes
    K tasked:                   Yes
    wK tasked:                   No
    OpenMP threads:               4
    Memory [MiB]:               715
    Algorithm:                 Core
    Schwarz Cutoff:           1E-08
    Mask sparsity (%):       0.6667
    Fitting Condition:        1E-10

   => Auxiliary Basis Set <=

  -AO BASIS SET INFORMATION:
    Name                   = (STO-3G AUX)
    Blend                  = DEF2-UNIVERSAL-JKFIT
    Total number of shells = 160
    Number of primitives   = 212
    Number of AO           = 556
    Number of SO           = 480
    Maximum AM             = 4
    Spherical Harmonics    = TRUE

  -Contraction Scheme:
    Atom   Type   All Primitives // Shells:
   ------ ------ --------------------------
       1     C     14s 10p 6d 2f 1g // 10s 8p 5d 1f 1g 
       2     C     14s 10p 6d 2f 1g // 10s 8p 5d 1f 1g 
       3     H     4s 2p 2d // 2s 2p 2d 
       4     H     4s 2p 2d // 2s 2p 2d 
       5     H     4s 2p 2d // 2s 2p 2d 
       6     C     14s 10p 6d 2f 1g // 10s 8p 5d 1f 1g 
       7     H     4s 2p 2d // 2s 2p 2d 
       8     H     4s 2p 2d // 2s 2p 2d 
       9     C     14s 10p 6d 2f 1g // 10s 8p 5d 1f 1g 
      10     H     4s 2p 2d // 2s 2p 2d 
      11     H     4s 2p 2d // 2s 2p 2d 
      12     H     4s 2p 2d // 2s 2p 2d 
      13     H     4s 2p 2d // 2s 2p 2d 
      14     H     4s 2p 2d // 2s 2p 2d 

  Minimum eigenvalue in the overlap matrix is 2.0151738157E-01.
  Reciprocal condition number of the overlap matrix is 7.7805481344E-02.
    Using symmetric orthogonalization.

  ==> Pre-Iterations <==

  SCF Guess: Superposition of Atomic Densities via on-the-fly atomic UHF (no occupation information).

   -------------------------
    Irrep   Nso     Nmo    
   -------------------------
     A         30      30 
   -------------------------
    Total      30      30
   -------------------------

  ==> Iterations <==

                           Total Energy        Delta E     RMS |[F,P]|

   @DF-RHF iter SAD:  -151.51902698738775   -1.51519e+02   0.00000e+00 
   @DF-RHF iter   1:  -155.45932893963504   -3.94030e+00   3.45214e-03 ADIIS/DIIS
   @DF-RHF iter   2:  -155.46677922501445   -7.45029e-03   6.79164e-04 ADIIS/DIIS
   @DF-RHF iter   3:  -155.46714581051410   -3.66585e-04   1.52699e-04 ADIIS/DIIS
   @DF-RHF iter   4:  -155.46716192679582   -1.61163e-05   8.39464e-06 DIIS
   @DF-RHF iter   5:  -155.46716197952512   -5.27293e-08   1.49593e-06 DIIS
   @DF-RHF iter   6:  -155.46716198092761   -1.40250e-09   1.33315e-07 DIIS
   @DF-RHF iter   7:  -155.46716198094219   -1.45803e-11   1.71504e-08 DIIS
   @DF-RHF iter   8:  -155.46716198094248   -2.84217e-13   2.56146e-09 DIIS

  DF guess converged.

  ==> DirectJK: Integral-Direct J/K Matrices <==

    J tasked:                  Yes
    K tasked:                  Yes
    wK tasked:                  No
    Integrals threads:           4
    Screening Type:           CSAM
    Screening Cutoff:        1E-08
    Incremental Fock:           No

   @RHF iter   9:  -155.46664614946286   -1.55467e+02   4.38975e-06 DIIS
   @RHF iter  10:  -155.46664615794785   -8.48499e-09   7.26922e-07 DIIS
   @RHF iter  11:  -155.46664615821146   -2.63611e-10   1.18132e-07 DIIS
   @RHF iter  12:  -155.46664615822257   -1.11129e-11   2.00695e-08 DIIS
   @RHF iter  13:  -155.46664615822291   -3.41061e-13   1.15058e-09 DIIS
  Energy and wave function converged.


  ==> Post-Iterations <==

    Orbital Energies [Eh]
    ---------------------

    Doubly Occupied:                                                      

       1A    -11.038496     2A    -11.038189     3A    -11.031663  
       4A    -11.031644     5A     -1.027467     6A     -0.942602  
       7A     -0.827320     8A     -0.758441     9A     -0.610276  
      10A     -0.555470    11A     -0.541847    12A     -0.539460  
      13A     -0.485274    14A     -0.469588    15A     -0.432888  
      16A     -0.430892    17A     -0.414875  

    Virtual:                                                              

      18A      0.601265    19A      0.617399    20A      0.652043  
      21A      0.683801    22A      0.687257    23A      0.736825  
      24A      0.750667    25A      0.765562    26A      0.767629  
      27A      0.768299    28A      0.797846    29A      0.800184  
      30A      0.831531  

    Final Occupation by Irrep:
              A 
    DOCC [    17 ]
    NA   [    17 ]
    NB   [    17 ]

  @RHF Final Energy:  -155.46664615822291

   => Energetics <=

    Nuclear Repulsion Energy =            130.2400025138142610
    One-Electron Energy =                -467.0605148465094771
    Two-Electron Energy =                 181.3538661744723015
    Total Energy =                       -155.4666461582229147

Computation Completed


Properties will be evaluated at   0.000000,   0.000000,   0.000000 [a0]

Properties computed using the SCF density matrix


 Multipole Moments:

 ------------------------------------------------------------------------------------
     Multipole            Electronic (a.u.)      Nuclear  (a.u.)        Total (a.u.)
 ------------------------------------------------------------------------------------

 L = 1.  Multiply by 2.5417464519 to convert [e a0] to [Debye]
 Dipole X            :          0.0002628           -0.0002794           -0.0000166
 Dipole Y            :          0.0005494           -0.0005470            0.0000024
 Dipole Z            :          0.0000406           -0.0000207            0.0000200
 Magnitude           :                                                    0.0000261

 ------------------------------------------------------------------------------------

*** tstop() called on Barrys-MacBook-Pro.local at Thu May  9 18:42:08 2024
Module time:
	user time   =       3.20 seconds =       0.05 minutes
	system time =       0.07 seconds =       0.00 minutes
	total time  =          2 seconds =       0.03 minutes
Total time:
	user time   =     117.85 seconds =       1.96 minutes
	system time =       2.97 seconds =       0.05 minutes
	total time  =      15644 seconds =     260.73 minutes

*** tstart() called on Barrys-MacBook-Pro.local
*** at Thu May  9 18:42:08 2024


         ------------------------------------------------------------
                                   SCF GRAD                          
                          Rob Parrish, Justin Turney,                
                       Andy Simmonett, and Alex Sokolov              
         ------------------------------------------------------------

  ==> Geometry <==

    Molecular point group: c1
    Full point group: C1

    Geometry (in Angstrom), charge = 0, multiplicity = 1:

       Center              X                  Y                   Z               Mass       
    ------------   -----------------  -----------------  -----------------  -----------------
         C            0.618001450306    -0.357572144362    -1.836080926429    12.000000000000
         C            0.618001450306    -0.357572144362    -0.294990926429    12.000000000000
         H            0.618001450306     0.658064771610    -2.220621091984     1.007825032230
         H            1.498361245919    -0.865780648210    -2.218310934306     1.007825032230
         H           -0.261507810781    -0.865490937196    -2.220618663929     1.007825032230
         C           -0.617641366245     0.358236696254     0.294952696265    12.000000000000
         H            0.643696387533    -1.384603527211     0.064758878580     1.007825032230
         H            1.521719487087     0.131005020847     0.064811102413     1.007825032230
         C           -0.618336503894     0.356956596981     1.836121007869    12.000000000000
         H           -0.642771550737     1.385495703922    -0.064174454223     1.007825032230
         H           -1.521312360274    -0.129740820439    -0.065774014707     1.007825032230
         H           -1.497025518987     0.868050136157     2.218326011721     1.007825032230
         H           -0.622232400277    -0.658934800079     2.219954455390     1.007825032230
         H            0.262773036640     0.861351612279     2.221626668216     1.007825032230

  Nuclear repulsion =  130.240002513814261

  ==> Basis Set <==

  -AO BASIS SET INFORMATION:
    Name                   = STO-3G
    Blend                  = STO-3G
    Total number of shells = 22
    Number of primitives   = 66
    Number of AO           = 30
    Number of SO           = 30
    Maximum AM             = 1
    Spherical Harmonics    = TRUE

  -Contraction Scheme:
    Atom   Type   All Primitives // Shells:
   ------ ------ --------------------------
       1     C     6s 3p // 2s 1p 
       2     C     6s 3p // 2s 1p 
       3     H     3s // 1s 
       4     H     3s // 1s 
       5     H     3s // 1s 
       6     C     6s 3p // 2s 1p 
       7     H     3s // 1s 
       8     H     3s // 1s 
       9     C     6s 3p // 2s 1p 
      10     H     3s // 1s 
      11     H     3s // 1s 
      12     H     3s // 1s 
      13     H     3s // 1s 
      14     H     3s // 1s 

  ==> DirectJKGrad: Integral-Direct SCF Gradients <==

    Gradient:                    1
    J tasked:                  Yes
    K tasked:                  Yes
    wK tasked:                  No
    Integrals threads:           4
    Schwarz Cutoff:          1E-08


  -Nuclear Gradient:
     Atom            X                  Y                   Z
    ------   -----------------  -----------------  -----------------
       1       -1.118214658105     0.647375190472     5.762105077200
       2       -3.670335510508     2.125010293231    -0.811856891071
       3       -0.152251998097    -1.710369909748     1.247622021638
       4       -1.604521514204     0.926390958916     1.109998549933
       5        1.405279423092     0.987420125829     1.247289764698
       6        3.668288143061    -2.129066105928     0.810837662490
       7       -0.385822692508     2.143788532763    -0.651980984565
       8       -2.051592830554    -0.731962688746    -0.652211854989
       9        1.120060090622    -0.643559875934    -5.761228696130
      10        0.384477051634    -2.144468421789     0.650792295911
      11        2.051553671644     0.730404749018     0.653694140888
      12        1.601823175186    -0.931088547462    -1.109949555650
      13        0.159109724864     1.711115929954    -1.245888126504
      14       -1.407852076128    -0.980990230577    -1.249223403849


  -Core Hamiltonian Gradient:
     Atom            X                  Y                   Z
    ------   -----------------  -----------------  -----------------
       1        2.345931990687    -1.358308923606   -10.739411870814
       2        6.502772511523    -3.764177659890     0.906878005731
       3        0.294301219505     4.992525280186    -3.062658585357
       4        4.473352928648    -2.582508626330    -2.760613612466
       5       -4.176492726302    -2.752152180598    -3.062011024483
       6       -6.499925823140     3.772646001130    -0.904483453002
       7        0.806578251658    -6.009846002622     1.935120009908
       8        5.614651938697     2.290103907590     1.935599640399
       9       -2.348554521994     1.350733701952    10.737706935106
      10       -0.803087352249     6.011280957441    -1.932300826061
      11       -5.614190457362    -2.286100104113    -1.940860919604
      12       -4.465273299640     2.596163476323     2.760500009178
      13       -0.314259085249    -4.993960478254     3.058645378838
      14        4.184194425219     2.733600650790     3.067890312628


  -Overlap Gradient:
     Atom            X                  Y                   Z
    ------   -----------------  -----------------  -----------------
       1       -0.000347783140     0.000204245099    -0.046279129383
       2        0.038613850414    -0.022381632403     0.027724768741
       3        0.000143100317    -0.162387011098     0.062872974498
       4       -0.140880345035     0.081322471407     0.062951032663
       5        0.140690025862     0.081092440680     0.062874288848
       6       -0.038563457954     0.022378425516    -0.027775300463
       7       -0.005138689443     0.163208945065    -0.058125085030
       8       -0.144142930827    -0.076721738078    -0.058132533449
       9        0.000299432606    -0.000222234121     0.046317099292
      10        0.005053208681    -0.163244074272     0.058047503567
      11        0.144124713193     0.076629239504     0.058301492955
      12        0.140604057709    -0.081785680065    -0.062950527179
      13        0.000488564776     0.162424106804    -0.062780394193
      14       -0.140943747158    -0.080517504037    -0.063046190866


  -Coulomb Gradient:
     Atom            X                  Y                   Z
    ------   -----------------  -----------------  -----------------
       1       -1.228862845706     0.711595168545     4.943359512657
       2       -2.804112213189     1.622754302243    -0.072871164754
       3       -0.142069238141    -3.425192011218     1.870664880041
       4       -2.992825792535     1.727698580199     1.705707060558
       5        2.895071136402     1.836279031766     1.870349103106
       6        2.803334931193    -1.627149901979     0.071408355870
       7       -0.425507719221     4.009074081416    -1.333845713727
       8       -3.689486521026    -1.625160807325    -1.334102852528
       9        1.229606675265    -0.707859323920    -4.942447698573
      10        0.423280891881    -4.009864165816     1.332124620854
      11        3.689060978443     1.622628637123     1.338003261712
      12        2.987220036254    -1.737062348262    -1.705640863124
      13        0.155714776217     3.425923531304    -1.868281788980
      14       -2.900425095839    -1.823664774075    -1.874426713114


  -Exchange Gradient:
     Atom            X                  Y                   Z
    ------   -----------------  -----------------  -----------------
       1        0.001500913880    -0.000876325085     0.080194705794
       2       -0.066903047007     0.038785905304    -0.049825361823
       3       -0.000127325527     0.305421665134    -0.118480169108
       4        0.264873998946    -0.152896616556    -0.118033609564
       5       -0.264542408473    -0.152644472984    -0.118482439018
       6        0.066796386828    -0.038758537518     0.049939776302
       7        0.009892352092    -0.306231685041     0.108803194963
       8        0.270582145545     0.143735453365     0.108817369120
       9       -0.001394984317     0.000891640030    -0.080283482354
      10       -0.009734309705     0.306289508850    -0.108661479581
      11       -0.270542919777    -0.143558830625    -0.109137381578
      12       -0.264357802867     0.153771118960     0.118029520949
      13       -0.001059826946    -0.305487105695     0.118309357631
      14        0.265016827327     0.151558281861     0.118809998267


  -Total Gradient:
     Atom            X                  Y                   Z
    ------   -----------------  -----------------  -----------------
       1        0.000007617616    -0.000010644575    -0.000031704547
       2        0.000035591233    -0.000008791514     0.000049356824
       3       -0.000004241943    -0.000001986743     0.000021121711
       4       -0.000000724180     0.000006767636     0.000009421125
       5        0.000005450581    -0.000005055308     0.000019693151
       6       -0.000069820013     0.000049881220    -0.000072958803
       7        0.000001502578    -0.000006128420    -0.000028578451
       8        0.000011801836    -0.000005873194    -0.000030231447
       9        0.000016692182    -0.000016091992     0.000064157343
      10       -0.000010509758    -0.000006195586     0.000002114691
      11        0.000005986140     0.000003690907     0.000000594372
      12        0.000016166641    -0.000001980507    -0.000011415825
      13       -0.000005846337     0.000015984113     0.000004426791
      14       -0.000009666579    -0.000013576038     0.000004003065


*** tstop() called on Barrys-MacBook-Pro.local at Thu May  9 18:42:08 2024
Module time:
	user time   =       0.60 seconds =       0.01 minutes
	system time =       0.00 seconds =       0.00 minutes
	total time  =          0 seconds =       0.00 minutes
Total time:
	user time   =     118.46 seconds =       1.97 minutes
	system time =       2.98 seconds =       0.05 minutes
	total time  =      15644 seconds =     260.73 minutes

    			-----------------------------------------

    			 OPTKING 3.0: for geometry optimizations 

    			     By R.A. King, Bethel University     

    			        with contributions from          

    			    A.V. Copan, J. Cayton, A. Heide      

    			-----------------------------------------

    
	                            ===> Fragment 1 <== 

	 Z (Atomic Numbers)          Masses                          Geom                  
	       6.000000            12.000000          1.16785349 -0.67571342 -3.46969010   
	       6.000000            12.000000          1.16785349 -0.67571342 -0.55745206   
	       1.000000             1.007825          1.16785349  1.24356219 -4.19636569   
	       1.000000             1.007825          2.83149239 -1.63608831 -4.19200013   
	       1.000000             1.007825         -0.49417814 -1.63554084 -4.19636110   
	       6.000000            12.000000         -1.16717303  0.67696924  0.55737982   
	       1.000000             1.007825          1.21640988 -2.61652146  0.12237654   
	       1.000000             1.007825          2.87563307  0.24756361  0.12247523   
	       6.000000            12.000000         -1.16848665  0.67455021  3.46976584   
	       1.000000             1.007825         -1.21466219  2.61820743 -0.12127214   
	       1.000000             1.007825         -2.87486371 -0.24517462 -0.12429487   
	       1.000000             1.007825         -2.82896823  1.64037702  4.19202862   
	       1.000000             1.007825         -1.17584882 -1.24520631  4.19510593   
	       1.000000             1.007825          0.49656907  1.62771864  4.19826596   

	 - Coordinate -           - BOHR/RAD -       - ANG/DEG -
	 R(1,2)           =         2.912238           1.541090
	 R(1,3)           =         2.052237           1.085997
	 R(1,4)           =         2.052254           1.086006
	 R(1,5)           =         2.052235           1.085996
	 R(2,6)           =         2.919752           1.545066
	 R(2,7)           =         2.057003           1.088519
	 R(2,8)           =         2.057001           1.088518
	 R(6,9)           =         2.912387           1.541169
	 R(6,10)          =         2.056995           1.088515
	 R(6,11)          =         2.056997           1.088516
	 R(9,12)          =         2.052239           1.085998
	 R(9,13)          =         2.052227           1.085992
	 R(9,14)          =         2.052231           1.085994
	 B(1,2,6)         =         1.962566         112.446725
	 B(1,2,7)         =         1.907624         109.298807
	 B(1,2,8)         =         1.907675         109.301738
	 B(2,1,3)         =         1.932737         110.737654
	 B(2,1,4)         =         1.930460         110.607207
	 B(2,1,5)         =         1.932735         110.737537
	 B(2,6,9)         =         1.962539         112.445221
	 B(2,6,10)        =         1.906788         109.250918
	 B(2,6,11)        =         1.906787         109.250874
	 B(3,1,4)         =         1.889165         108.241169
	 B(3,1,5)         =         1.888113         108.180910
	 B(4,1,5)         =         1.889166         108.241266
	 B(6,2,7)         =         1.906892         109.256891
	 B(6,2,8)         =         1.906897         109.257131
	 B(6,9,12)        =         1.930410         110.604358
	 B(6,9,13)        =         1.932875         110.745577
	 B(6,9,14)        =         1.932884         110.746117
	 B(7,2,8)         =         1.869887         107.136637
	 B(9,6,10)        =         1.907839         109.311100
	 B(9,6,11)        =         1.907784         109.308000
	 B(10,6,11)       =         1.869799         107.131610
	 B(12,9,13)       =         1.889094         108.237132
	 B(12,9,14)       =         1.889091         108.236937
	 B(13,9,14)       =         1.888010         108.175020
	 D(1,2,6,9)       =         3.140570         179.941429
	 D(1,2,6,10)      =        -1.021146         -58.507336
	 D(1,2,6,11)      =         1.019170          58.394160
	 D(2,6,9,12)      =         3.139867         179.901135
	 D(2,6,9,13)      =        -1.049011         -60.103908
	 D(2,6,9,14)      =         1.045558          59.906070
	 D(3,1,2,6)       =         1.045736          59.916254
	 D(3,1,2,7)       =        -3.116579        -178.566836
	 D(3,1,2,8)       =        -1.075175         -61.603010
	 D(4,1,2,6)       =         3.140074         179.912961
	 D(4,1,2,7)       =        -1.022242         -58.570129
	 D(4,1,2,8)       =         1.019162          58.393697
	 D(5,1,2,6)       =        -1.048773         -60.090287
	 D(5,1,2,7)       =         1.072097          61.426623
	 D(5,1,2,8)       =         3.113501         178.390449
	 D(7,2,6,9)       =         1.019283          58.400623
	 D(7,2,6,10)      =         3.140752         179.951858
	 D(7,2,6,11)      =        -1.102117         -63.146646
	 D(8,2,6,9)       =        -1.021260         -58.513876
	 D(8,2,6,10)      =         1.100209          63.037359
	 D(8,2,6,11)      =         3.140525         179.938855
	 D(10,6,9,12)     =         1.018997          58.384210
	 D(10,6,9,13)     =         3.113304         178.379167
	 D(10,6,9,14)     =        -1.075312         -61.610855
	 D(11,6,9,12)     =        -1.022487         -58.584164
	 D(11,6,9,13)     =         1.071821          61.410793
	 D(11,6,9,14)     =        -3.116796        -178.579229


	        --- Internal Coordinate Step in ANG or DEG, aJ/ANG or AJ/DEG ---
	-------------------------------------------------------------------------------
	           Coordinate      Previous         Force          Change          New 
	           ----------      --------        ------          ------        ------
	               R(1,2)       1.54109        0.00015        0.00003       1.54112
	               R(1,3)       1.08600        0.00008        0.00001       1.08601
	               R(1,4)       1.08601        0.00006        0.00001       1.08602
	               R(1,5)       1.08600        0.00007        0.00001       1.08601
	               R(2,6)       1.54507       -0.00047       -0.00011       1.54496
	               R(2,7)       1.08852        0.00003        0.00001       1.08852
	               R(2,8)       1.08852        0.00002        0.00000       1.08852
	               R(6,9)       1.54117       -0.00050       -0.00011       1.54106
	              R(6,10)       1.08852        0.00005        0.00001       1.08852
	              R(6,11)       1.08852        0.00006        0.00001       1.08853
	              R(9,12)       1.08600        0.00015        0.00003       1.08603
	              R(9,13)       1.08599        0.00011        0.00002       1.08601
	              R(9,14)       1.08599        0.00010        0.00002       1.08601
	             B(1,2,6)     112.44672        0.00000        0.00468     112.45141
	             B(1,2,7)     109.29881        0.00000        0.01379     109.31260
	             B(1,2,8)     109.30174        0.00000        0.01080     109.31254
	             B(2,1,3)     110.73765        0.00000        0.00811     110.74577
	             B(2,1,4)     110.60721        0.00000        0.00026     110.60747
	             B(2,1,5)     110.73754        0.00000        0.00713     110.74467
	             B(2,6,9)     112.44522        0.00000        0.00738     112.45260
	            B(2,6,10)     109.25092       -0.00000       -0.00346     109.24746
	            B(2,6,11)     109.25087       -0.00000       -0.00274     109.24813
	             B(3,1,4)     108.24117       -0.00000       -0.00502     108.23615
	             B(3,1,5)     108.18091       -0.00000       -0.00626     108.17465
	             B(4,1,5)     108.24127       -0.00000       -0.00491     108.23636
	             B(6,2,7)     109.25689       -0.00000       -0.01119     109.24571
	             B(6,2,8)     109.25713       -0.00000       -0.01258     109.24455
	            B(6,9,12)     110.60436        0.00000        0.00551     110.60987
	            B(6,9,13)     110.74558       -0.00000       -0.00536     110.74021
	            B(6,9,14)     110.74612       -0.00000       -0.00488     110.74123
	             B(7,2,8)     107.13664       -0.00000       -0.00607     107.13057
	            B(9,6,10)     109.31110       -0.00000       -0.00296     109.30814
	            B(9,6,11)     109.30800       -0.00000       -0.00017     109.30783
	           B(10,6,11)     107.13161        0.00000        0.00170     107.13331
	           B(12,9,13)     108.23713        0.00000        0.00147     108.23860
	           B(12,9,14)     108.23694        0.00000        0.00145     108.23839
	           B(13,9,14)     108.17502        0.00000        0.00203     108.17705
	           D(1,2,6,9)     179.94143        0.00000        0.05248     179.99391
	          D(1,2,6,10)     -58.50734        0.00000        0.05120     -58.45614
	          D(1,2,6,11)      58.39416        0.00000        0.04972      58.44388
	          D(2,6,9,12)     179.90114        0.00000        0.10163     180.00276
	          D(2,6,9,13)     -60.10391        0.00000        0.10357     -60.00034
	          D(2,6,9,14)      59.90607        0.00000        0.09939      60.00546
	           D(3,1,2,6)      59.91625        0.00000        0.08920      60.00546
	           D(3,1,2,7)    -178.56684       -0.00000        0.08776    -178.47907
	           D(3,1,2,8)     -61.60301        0.00000        0.09450     -61.50851
	           D(4,1,2,6)     179.91296        0.00000        0.08839     180.00135
	           D(4,1,2,7)     -58.57013       -0.00000        0.08694     -58.48319
	           D(4,1,2,8)      58.39370        0.00000        0.09369      58.48738
	           D(5,1,2,6)     -60.09029        0.00000        0.08706     -60.00323
	           D(5,1,2,7)      61.42662       -0.00000        0.08562      61.51224
	           D(5,1,2,8)     178.39045        0.00000        0.09236     178.48281
	           D(7,2,6,9)      58.40062       -0.00000        0.03969      58.44032
	          D(7,2,6,10)     179.95186       -0.00000        0.03841     179.99027
	          D(7,2,6,11)     -63.14665       -0.00000        0.03693     -63.10972
	           D(8,2,6,9)     -58.51388        0.00000        0.06051     -58.45337
	          D(8,2,6,10)      63.03736        0.00000        0.05922      63.09658
	          D(8,2,6,11)     179.93885        0.00000        0.05774     179.99660
	         D(10,6,9,12)      58.38421        0.00000        0.10319      58.48740
	         D(10,6,9,13)     178.37917        0.00000        0.10513     178.48430
	         D(10,6,9,14)     -61.61086        0.00000        0.10096     -61.50989
	         D(11,6,9,12)     -58.58416        0.00000        0.10293     -58.48123
	         D(11,6,9,13)      61.41079        0.00000        0.10487      61.51566
	         D(11,6,9,14)    -178.57923        0.00000        0.10070    -178.47853
	-------------------------------------------------------------------------------

	                                 ==> Convergence Check <==                                  
    
	Measures of convergence in internal coordinates in au.
    
	Criteria marked as inactive (o), active & met (*), and active & unmet ( ).

	----------------------------------------------------------------------------------------------
	   Step    Total Energy     Delta E     Max Force     RMS Force      Max Disp      RMS Disp   
	----------------------------------------------------------------------------------------------
	  Convergence Criteria     1.00e-06 *    3.00e-04 *             o    1.20e-03 *             o
	----------------------------------------------------------------------------------------------
	     1    -155.46664616   -1.55e+02      6.12e-05 *    1.52e-05 o    1.83e-03      9.53e-04 o  ~
	----------------------------------------------------------------------------------------------

Next Geometry in Ang 
	Fragment 1 (Ang)

	    C   0.6181047565  -0.3573225247  -1.8361112619
	    C   0.6177555651  -0.3578973076  -0.2949869066
	    H   0.6199950545   0.6584148373  -2.2204209566
	    H   1.4976618331  -0.8669422726  -2.2183404180
	    H  -0.2621682319  -0.8635508213  -2.2211685117
	    C  -0.6177370909   0.3578877360   0.2950196541
	    H   0.6431166047  -1.3849876973   0.0646347101
	    H   1.5213974356   0.1304012409   0.0653971320
	    C  -0.6181897499   0.3571980929   1.8360745058
	    H  -0.6430310871   1.3850340175  -0.0644471562
	    H  -1.5214213749  -0.1303309839  -0.0653783769
	    H  -1.4977813449   0.8667579055   2.2183281147
	    H  -0.6200564197  -0.6586062124   2.2202102892
	    H   0.2620810467   0.8634095060   2.2211689905


    Structure for next step:
    Molecular point group: c1
    Full point group: C1

    Geometry (in Angstrom), charge = 0, multiplicity = 1:

    C       
    C             1    1.541125
    H             1    1.086011      2  110.745766
    H             1    1.086017      2  110.607466      3  119.995888
    H             1    1.086010      2  110.744669      3 -120.008686
    C             2    1.544959      1  112.451410      3   60.005458
    H             2    1.088524      1  109.312599      6  121.515467
    H             2    1.088522      1  109.312541      6 -121.513964
    C             6    1.541055      2  112.452596      1    dihedral
    H             6    1.088525      2  109.247455      9  121.549951
    H             6    1.088526      2  109.248134      9 -121.550034
    H             9    1.086025      6  110.609866     10   58.487402
    H             9    1.086012      6  110.740213     12  119.996897
    H             9    1.086013      6  110.741234     12 -119.997296

    dihedral  =  179.9939137443


Scratch directory: /tmp/
gradient() will perform analytic gradient computation.
   => Libint2 <=

    Primary   basis highest AM E, G, H:  5, 4, 3
    Auxiliary basis highest AM E, G, H:  6, 5, 4
    Onebody   basis highest AM E, G, H:  6, 5, 4
    Solid Harmonics ordering:            Gaussian

*** tstart() called on Barrys-MacBook-Pro.local
*** at Thu May  9 18:42:08 2024

   => Loading Basis Set <=

    Name: STO-3G
    Role: ORBITAL
    Keyword: BASIS
    atoms 1-2, 6, 9       entry C          line    61 file /Users/blink/psi4conda/share/psi4/basis/sto-3g.gbs 
    atoms 3-5, 7-8, 10-14 entry H          line    19 file /Users/blink/psi4conda/share/psi4/basis/sto-3g.gbs 


         ---------------------------------------------------------
                                   SCF
               by Justin Turney, Rob Parrish, Andy Simmonett
                          and Daniel G. A. Smith
                              RHF Reference
                        4 Threads,    953 MiB Core
         ---------------------------------------------------------

  ==> Geometry <==

    Molecular point group: c1
    Full point group: C1

    Geometry (in Angstrom), charge = 0, multiplicity = 1:

       Center              X                  Y                   Z               Mass       
    ------------   -----------------  -----------------  -----------------  -----------------
         C            0.618340655443    -0.356875397048    -1.836116778226    12.000000000000
         C            0.618340655443    -0.356875397048    -0.294992276128    12.000000000000
         H            0.618340655443     0.658720161595    -2.220805697372     1.007825032230
         H            1.498714815098    -0.865075411727    -2.218355120405     1.007825032230
         H           -0.261119091609    -0.864809503895    -2.220785732589     1.007825032230
         C           -0.618287625180     0.356935206708     0.295027207486    12.000000000000
         H            0.645606529570    -1.383784799118     0.065006626991     1.007825032230
         H            1.521195507790     0.133161269345     0.065004861583     1.007825032230
         C           -0.618390904325     0.356820136996     1.836082272213    12.000000000000
         H           -0.645486520208     1.383900677251    -0.064816925288     1.007825032230
         H           -1.521185035822    -0.133021711706    -0.064983942800     1.007825032230
         H           -1.498799470399     0.864960164274     2.218345097396     1.007825032230
         H           -0.618367196609    -0.658842387790     2.220597299681     1.007825032230
         H            0.261066689317     0.864737370356     2.220788468299     1.007825032230

  Running in c1 symmetry.

  Rotational constants: A =      0.77785  B =      0.11994  C =      0.11254 [cm^-1]
  Rotational constants: A =  23319.25675  B =   3595.80353  C =   3373.74461 [MHz]
  Nuclear repulsion =  130.242022266261984

  Charge       = 0
  Multiplicity = 1
  Electrons    = 34
  Nalpha       = 17
  Nbeta        = 17

  ==> Algorithm <==

  SCF Algorithm Type is DIRECT.
  DIIS enabled.
  MOM disabled.
  Fractional occupation disabled.
  Guess Type is READ.
  Energy threshold   = 1.00e-08
  Density threshold  = 1.00e-08
  Integral threshold = 1.00e-08

  ==> Primary Basis <==

  -AO BASIS SET INFORMATION:
    Name                   = STO-3G
    Blend                  = STO-3G
    Total number of shells = 22
    Number of primitives   = 66
    Number of AO           = 30
    Number of SO           = 30
    Maximum AM             = 1
    Spherical Harmonics    = TRUE

  -Contraction Scheme:
    Atom   Type   All Primitives // Shells:
   ------ ------ --------------------------
       1     C     6s 3p // 2s 1p 
       2     C     6s 3p // 2s 1p 
       3     H     3s // 1s 
       4     H     3s // 1s 
       5     H     3s // 1s 
       6     C     6s 3p // 2s 1p 
       7     H     3s // 1s 
       8     H     3s // 1s 
       9     C     6s 3p // 2s 1p 
      10     H     3s // 1s 
      11     H     3s // 1s 
      12     H     3s // 1s 
      13     H     3s // 1s 
      14     H     3s // 1s 

   => Loading Basis Set <=

    Name: (STO-3G AUX)
    Role: JKFIT
    Keyword: DF_BASIS_SCF
    atoms 1-2, 6, 9       entry C          line   198 file /Users/blink/psi4conda/share/psi4/basis/def2-universal-jkfit.gbs 
    atoms 3-5, 7-8, 10-14 entry H          line    18 file /Users/blink/psi4conda/share/psi4/basis/def2-universal-jkfit.gbs 

   => Loading Basis Set <=

    Name: STO-3G
    Role: ORBITAL
    Keyword: BASIS
    atoms 1-2, 6, 9       entry C          line    61 file /Users/blink/psi4conda/share/psi4/basis/sto-3g.gbs 
    atoms 3-5, 7-8, 10-14 entry H          line    19 file /Users/blink/psi4conda/share/psi4/basis/sto-3g.gbs 

  Reading orbitals from file /tmp/butane_PES_points_1.default.45084.180.npy, no projection.

  Starting with a DF guess...

  ==> Integral Setup <==

  DFHelper Memory: AOs need 0.005 GiB; user supplied 0.698 GiB. 
  Using in-core AOs.

  ==> MemDFJK: Density-Fitted J/K Matrices <==

    J tasked:                   Yes
    K tasked:                   Yes
    wK tasked:                   No
    OpenMP threads:               4
    Memory [MiB]:               715
    Algorithm:                 Core
    Schwarz Cutoff:           1E-08
    Mask sparsity (%):       0.6667
    Fitting Condition:        1E-10

   => Auxiliary Basis Set <=

  -AO BASIS SET INFORMATION:
    Name                   = (STO-3G AUX)
    Blend                  = DEF2-UNIVERSAL-JKFIT
    Total number of shells = 160
    Number of primitives   = 212
    Number of AO           = 556
    Number of SO           = 480
    Maximum AM             = 4
    Spherical Harmonics    = TRUE

  -Contraction Scheme:
    Atom   Type   All Primitives // Shells:
   ------ ------ --------------------------
       1     C     14s 10p 6d 2f 1g // 10s 8p 5d 1f 1g 
       2     C     14s 10p 6d 2f 1g // 10s 8p 5d 1f 1g 
       3     H     4s 2p 2d // 2s 2p 2d 
       4     H     4s 2p 2d // 2s 2p 2d 
       5     H     4s 2p 2d // 2s 2p 2d 
       6     C     14s 10p 6d 2f 1g // 10s 8p 5d 1f 1g 
       7     H     4s 2p 2d // 2s 2p 2d 
       8     H     4s 2p 2d // 2s 2p 2d 
       9     C     14s 10p 6d 2f 1g // 10s 8p 5d 1f 1g 
      10     H     4s 2p 2d // 2s 2p 2d 
      11     H     4s 2p 2d // 2s 2p 2d 
      12     H     4s 2p 2d // 2s 2p 2d 
      13     H     4s 2p 2d // 2s 2p 2d 
      14     H     4s 2p 2d // 2s 2p 2d 

  Minimum eigenvalue in the overlap matrix is 2.0150741881E-01.
  Reciprocal condition number of the overlap matrix is 7.7799765342E-02.
    Using symmetric orthogonalization.

  ==> Pre-Iterations <==

  SCF Guess: Orbitals guess was supplied from a previous computation.

   -------------------------------------------------------
    Irrep   Nso     Nmo     Nalpha   Nbeta   Ndocc  Nsocc
   -------------------------------------------------------
     A         30      30      17      17      17       0
   -------------------------------------------------------
    Total      30      30      17      17      17       0
   -------------------------------------------------------

  ==> Iterations <==

                           Total Energy        Delta E     RMS |[F,P]|

   @DF-RHF iter   0:  -155.46715397126391   -1.55467e+02   7.71530e-05 
   @DF-RHF iter   1:  -155.46716161121878   -7.63995e-06   2.08158e-05 DIIS
   @DF-RHF iter   2:  -155.46716202366699   -4.12448e-07   6.56954e-06 DIIS
   @DF-RHF iter   3:  -155.46716206946388   -4.57969e-08   1.64735e-07 DIIS
   @DF-RHF iter   4:  -155.46716206948270   -1.88152e-11   3.33857e-08 DIIS
   @DF-RHF iter   5:  -155.46716206948372   -1.02318e-12   3.98156e-09 DIIS

  DF guess converged.

  ==> DirectJK: Integral-Direct J/K Matrices <==

    J tasked:                  Yes
    K tasked:                  Yes
    wK tasked:                  No
    Integrals threads:           4
    Screening Type:           CSAM
    Screening Cutoff:        1E-08
    Incremental Fock:           No

   @RHF iter   6:  -155.46664623500570   -1.55467e+02   4.38989e-06 DIIS
   @RHF iter   7:  -155.46664624349125   -8.48556e-09   7.26986e-07 DIIS
   @RHF iter   8:  -155.46664624375481   -2.63555e-10   1.18132e-07 DIIS
   @RHF iter   9:  -155.46664624376601   -1.11982e-11   2.00689e-08 DIIS
   @RHF iter  10:  -155.46664624376632   -3.12639e-13   1.14943e-09 DIIS
  Energy and wave function converged.


  ==> Post-Iterations <==

    Orbital Energies [Eh]
    ---------------------

    Doubly Occupied:                                                      

       1A    -11.038492     2A    -11.038186     3A    -11.031670  
       4A    -11.031652     5A     -1.027489     6A     -0.942601  
       7A     -0.827334     8A     -0.758429     9A     -0.610284  
      10A     -0.555463    11A     -0.541837    12A     -0.539476  
      13A     -0.485284    14A     -0.469585    15A     -0.432866  
      16A     -0.430887    17A     -0.414901  

    Virtual:                                                              

      18A      0.601245    19A      0.617376    20A      0.652115  
      21A      0.683790    22A      0.687219    23A      0.736817  
      24A      0.750702    25A      0.765563    26A      0.767674  
      27A      0.768333    28A      0.797831    29A      0.800180  
      30A      0.831519  

    Final Occupation by Irrep:
              A 
    DOCC [    17 ]
    NA   [    17 ]
    NB   [    17 ]

  @RHF Final Energy:  -155.46664624376632

   => Energetics <=

    Nuclear Repulsion Energy =            130.2420222662619835
    One-Electron Energy =                -467.0644651876192484
    Two-Electron Energy =                 181.3557966775909449
    Total Energy =                       -155.4666462437663199

Computation Completed


Properties will be evaluated at   0.000000,   0.000000,   0.000000 [a0]

Properties computed using the SCF density matrix


 Multipole Moments:

 ------------------------------------------------------------------------------------
     Multipole            Electronic (a.u.)      Nuclear  (a.u.)        Total (a.u.)
 ------------------------------------------------------------------------------------

 L = 1.  Multiply by 2.5417464519 to convert [e a0] to [Debye]
 Dipole X            :          0.0000401           -0.0000310            0.0000091
 Dipole Y            :          0.0000487           -0.0000508           -0.0000021
 Dipole Z            :         -0.0000048           -0.0000047           -0.0000096
 Magnitude           :                                                    0.0000133

 ------------------------------------------------------------------------------------

*** tstop() called on Barrys-MacBook-Pro.local at Thu May  9 18:42:09 2024
Module time:
	user time   =       3.01 seconds =       0.05 minutes
	system time =       0.05 seconds =       0.00 minutes
	total time  =          1 seconds =       0.02 minutes
Total time:
	user time   =     122.45 seconds =       2.04 minutes
	system time =       3.05 seconds =       0.05 minutes
	total time  =      15645 seconds =     260.75 minutes

*** tstart() called on Barrys-MacBook-Pro.local
*** at Thu May  9 18:42:09 2024


         ------------------------------------------------------------
                                   SCF GRAD                          
                          Rob Parrish, Justin Turney,                
                       Andy Simmonett, and Alex Sokolov              
         ------------------------------------------------------------

  ==> Geometry <==

    Molecular point group: c1
    Full point group: C1

    Geometry (in Angstrom), charge = 0, multiplicity = 1:

       Center              X                  Y                   Z               Mass       
    ------------   -----------------  -----------------  -----------------  -----------------
         C            0.618340655443    -0.356875397048    -1.836116778226    12.000000000000
         C            0.618340655443    -0.356875397048    -0.294992276128    12.000000000000
         H            0.618340655443     0.658720161595    -2.220805697372     1.007825032230
         H            1.498714815098    -0.865075411727    -2.218355120405     1.007825032230
         H           -0.261119091609    -0.864809503895    -2.220785732589     1.007825032230
         C           -0.618287625180     0.356935206708     0.295027207486    12.000000000000
         H            0.645606529570    -1.383784799118     0.065006626991     1.007825032230
         H            1.521195507790     0.133161269345     0.065004861583     1.007825032230
         C           -0.618390904325     0.356820136996     1.836082272213    12.000000000000
         H           -0.645486520208     1.383900677251    -0.064816925288     1.007825032230
         H           -1.521185035822    -0.133021711706    -0.064983942800     1.007825032230
         H           -1.498799470399     0.864960164274     2.218345097396     1.007825032230
         H           -0.618367196609    -0.658842387790     2.220597299681     1.007825032230
         H            0.261066689317     0.864737370356     2.220788468299     1.007825032230

  Nuclear repulsion =  130.242022266261984

  ==> Basis Set <==

  -AO BASIS SET INFORMATION:
    Name                   = STO-3G
    Blend                  = STO-3G
    Total number of shells = 22
    Number of primitives   = 66
    Number of AO           = 30
    Number of SO           = 30
    Maximum AM             = 1
    Spherical Harmonics    = TRUE

  -Contraction Scheme:
    Atom   Type   All Primitives // Shells:
   ------ ------ --------------------------
       1     C     6s 3p // 2s 1p 
       2     C     6s 3p // 2s 1p 
       3     H     3s // 1s 
       4     H     3s // 1s 
       5     H     3s // 1s 
       6     C     6s 3p // 2s 1p 
       7     H     3s // 1s 
       8     H     3s // 1s 
       9     C     6s 3p // 2s 1p 
      10     H     3s // 1s 
      11     H     3s // 1s 
      12     H     3s // 1s 
      13     H     3s // 1s 
      14     H     3s // 1s 

  ==> DirectJKGrad: Integral-Direct SCF Gradients <==

    Gradient:                    1
    J tasked:                  Yes
    K tasked:                  Yes
    wK tasked:                  No
    Integrals threads:           4
    Schwarz Cutoff:          1E-08


  -Nuclear Gradient:
     Atom            X                  Y                   Z
    ------   -----------------  -----------------  -----------------
       1       -1.118930857163     0.645816134224     5.761607052463
       2       -3.673779018615     2.120486835575    -0.810325226494
       3       -0.152240772274    -1.710411483720     1.247568505665
       4       -1.604567730911     0.926237072247     1.109964626091
       5        1.404994897964     0.987265607700     1.247558452712
       6        3.673402401917    -2.120779465080     0.811018365001
       7       -0.389073913467     2.143150265643    -0.652292324331
       8       -2.050407451496    -0.735092107645    -0.652309668506
       9        1.119357486094    -0.645582805844    -5.762229268073
      10        0.388890214529    -2.143276766039     0.652091588578
      11        2.050439895727     0.734916996535     0.652390941956
      12        1.604625332507    -0.926094932467    -1.110001434776
      13        0.152254201557     1.710582642389    -1.247366710988
      14       -1.404964686370    -0.987217993519    -1.247674899298


  -Core Hamiltonian Gradient:
     Atom            X                  Y                   Z
    ------   -----------------  -----------------  -----------------
       1        2.346952400997    -1.354549444875   -10.738034930477
       2        6.508532718453    -3.756742013097     0.902076960117
       3        0.294385553367     4.992269970926    -3.063330176283
       4        4.473319483945    -2.582231095618    -2.760730904023
       5       -4.175855332218    -2.751721256611    -3.063234375509
       6       -6.507302028999     3.756855903209    -0.903338830275
       7        0.815506736814    -6.007978442374     1.937102207527
       8        5.610278401555     2.299021694916     1.937112812327
       9       -2.348205773337     1.354497897904    10.738968405263
      10       -0.814995222130     6.008436097377    -1.936064759531
      11       -5.610576056816    -2.298574968912    -1.936956631106
      12       -4.473590646865     2.581919819938     2.760848429192
      13       -0.294347225538    -4.992859643611     3.062315939351
      14        4.175896990773     2.751655480829     3.063265853428


  -Overlap Gradient:
     Atom            X                  Y                   Z
    ------   -----------------  -----------------  -----------------
       1       -0.000328051049     0.000186766684    -0.046324388813
       2        0.038630443628    -0.022294379010     0.027825992482
       3        0.000139354719    -0.162375047599     0.062915080831
       4       -0.140875360199     0.081321058248     0.062958793226
       5        0.140679229460     0.081088488317     0.062910473177
       6       -0.038645165068     0.022313203010    -0.027805228928
       7       -0.005381275293     0.163174946416    -0.058192577665
       8       -0.143986232990    -0.076959272401    -0.058191835815
       9        0.000342855148    -0.000205247723     0.046308184840
      10        0.005369700740    -0.163185658094     0.058155714671
      11        0.143995495897     0.076946180558     0.058182256016
      12        0.140884322707    -0.081312991960    -0.062960920438
      13       -0.000144153411     0.162388310494    -0.062874842485
      14       -0.140681164289    -0.081086356938    -0.062906701099


  -Coulomb Gradient:
     Atom            X                  Y                   Z
    ------   -----------------  -----------------  -----------------
       1       -1.229158651398     0.709386923852     4.942431647551
       2       -2.806467365668     1.619930968547    -0.069496544719
       3       -0.142162916802    -3.424876923138     1.871400527448
       4       -2.992742212483     1.727568044173     1.705853976208
       5        2.894699992858     1.836000582669     1.871312929176
       6        2.805613486227    -1.619743245438     0.070124628927
       7       -0.431405119021     4.007824213114    -1.335541956895
       8       -3.686182648582    -1.631149339574    -1.335535980635
       9        1.229993978873    -0.709582679638    -4.942801962940
      10        0.431068271172    -4.008163677473     1.334687668624
      11        3.686450505640     1.630865441406     1.335302604542
      12        2.992952909393    -1.727385978233    -1.705935687024
      13        0.142108231028     3.425303855900    -1.870566993784
      14       -2.894768461238    -1.835978186167    -1.871234856478


  -Exchange Gradient:
     Atom            X                  Y                   Z
    ------   -----------------  -----------------  -----------------
       1        0.001455686653    -0.000834580136     0.080300194396
       2       -0.066926520290     0.038622589149    -0.050068288040
       3       -0.000120890947     0.305392435318    -0.118562986318
       4        0.264864967185    -0.152894508143    -0.118047342023
       5       -0.264517456182    -0.152632429140    -0.118554060422
       6        0.066964408310    -0.038664451130     0.050021389685
       7        0.010348041685    -0.306166601827     0.108938344511
       8        0.270288466632     0.144182670827     0.108937258340
       9       -0.001495352853     0.000876588794    -0.080263649611
      10       -0.010325098286     0.306191370543    -0.108868311694
      11       -0.270309095332    -0.144160600778    -0.108917980896
      12       -0.264879107660     0.152878236503     0.118053570326
      13        0.000129370912    -0.305421148386     0.118485910317
      14        0.264522580173     0.152630428405     0.118545951430


  -Total Gradient:
     Atom            X                  Y                   Z
    ------   -----------------  -----------------  -----------------
       1       -0.000009471960     0.000005799748    -0.000020424880
       2       -0.000009742493     0.000004001165     0.000012893345
       3        0.000000328063    -0.000001048213    -0.000009048658
       4       -0.000000852462     0.000000570907    -0.000000850522
       5        0.000001331883     0.000000992936    -0.000006580866
       6        0.000033102388    -0.000018055430     0.000020324410
       7       -0.000005529281     0.000004380971     0.000013693148
       8       -0.000009464882     0.000003646124     0.000012585711
       9       -0.000006806076     0.000003753494    -0.000018290522
      10        0.000007866024     0.000001366312     0.000001900648
      11        0.000000745117    -0.000006951191     0.000001190512
      12       -0.000007189917     0.000004153781     0.000003957279
      13        0.000000424548    -0.000005983214    -0.000006697588
      14        0.000005259049     0.000003372609    -0.000004652017


*** tstop() called on Barrys-MacBook-Pro.local at Thu May  9 18:42:09 2024
Module time:
	user time   =       0.49 seconds =       0.01 minutes
	system time =       0.01 seconds =       0.00 minutes
	total time  =          0 seconds =       0.00 minutes
Total time:
	user time   =     122.94 seconds =       2.05 minutes
	system time =       3.06 seconds =       0.05 minutes
	total time  =      15645 seconds =     260.75 minutes

    			-----------------------------------------

    			 OPTKING 3.0: for geometry optimizations 

    			     By R.A. King, Bethel University     

    			        with contributions from          

    			    A.V. Copan, J. Cayton, A. Heide      

    			-----------------------------------------

    
	                            ===> Fragment 1 <== 

	 Z (Atomic Numbers)          Masses                          Geom                  
	       6.000000            12.000000          1.16849449 -0.67439676 -3.46975785   
	       6.000000            12.000000          1.16849449 -0.67439676 -0.55745461   
	       1.000000             1.007825          1.16849449  1.24480070 -4.19671455   
	       1.000000             1.007825          2.83216054 -1.63475561 -4.19208363   
	       1.000000             1.007825         -0.49344357 -1.63425311 -4.19667682   
	       6.000000            12.000000         -1.16839428  0.67450979  0.55752062   
	       1.000000             1.007825          1.22001953 -2.61497429  0.12284472   
	       1.000000             1.007825          2.87464289  0.25163833  0.12284139   
	       6.000000            12.000000         -1.16858945  0.67429233  3.46969264   
	       1.000000             1.007825         -1.21979274  2.61519326 -0.12248624   
	       1.000000             1.007825         -2.87462310 -0.25137460 -0.12280185   
	       1.000000             1.007825         -2.83232052  1.63453782  4.19206469   
	       1.000000             1.007825         -1.16854465 -1.24503167  4.19632073   
	       1.000000             1.007825          0.49334454  1.63411680  4.19668199   

	 - Coordinate -           - BOHR/RAD -       - ANG/DEG -
	 R(1,2)           =         2.912303           1.541125
	 R(1,3)           =         2.052263           1.086011
	 R(1,4)           =         2.052274           1.086017
	 R(1,5)           =         2.052261           1.086010
	 R(2,6)           =         2.919549           1.544959
	 R(2,7)           =         2.057013           1.088524
	 R(2,8)           =         2.057009           1.088522
	 R(6,9)           =         2.912172           1.541055
	 R(6,10)          =         2.057013           1.088525
	 R(6,11)          =         2.057017           1.088526
	 R(9,12)          =         2.052290           1.086025
	 R(9,13)          =         2.052265           1.086012
	 R(9,14)          =         2.052267           1.086013
	 B(1,2,6)         =         1.962647         112.451410
	 B(1,2,7)         =         1.907865         109.312599
	 B(1,2,8)         =         1.907864         109.312541
	 B(2,1,3)         =         1.932878         110.745766
	 B(2,1,4)         =         1.930464         110.607466
	 B(2,1,5)         =         1.932859         110.744669
	 B(2,6,9)         =         1.962668         112.452596
	 B(2,6,10)        =         1.906728         109.247455
	 B(2,6,11)        =         1.906740         109.248134
	 B(3,1,4)         =         1.889077         108.236153
	 B(3,1,5)         =         1.888004         108.174649
	 B(4,1,5)         =         1.889081         108.236356
	 B(6,2,7)         =         1.906697         109.245706
	 B(6,2,8)         =         1.906677         109.244553
	 B(6,9,12)        =         1.930506         110.609866
	 B(6,9,13)        =         1.932781         110.740213
	 B(6,9,14)        =         1.932799         110.741234
	 B(7,2,8)         =         1.869781         107.130567
	 B(9,6,10)        =         1.907787         109.308141
	 B(9,6,11)        =         1.907782         109.307832
	 B(10,6,11)       =         1.869829         107.133312
	 B(12,9,13)       =         1.889120         108.238599
	 B(12,9,14)       =         1.889116         108.238386
	 B(13,9,14)       =         1.888046         108.177054
	 D(1,2,6,9)       =         3.141486         179.993914
	 D(1,2,6,10)      =        -1.020252         -58.456135
	 D(1,2,6,11)      =         1.020038          58.443879
	 D(2,6,9,12)      =         3.141641         180.002761
	 D(2,6,9,13)      =        -1.047204         -60.000343
	 D(2,6,9,14)      =         1.047293          60.005465
	 D(3,1,2,6)       =         1.047293          60.005458
	 D(3,1,2,7)       =        -3.115047        -178.479075
	 D(3,1,2,8)       =        -1.073526         -61.508505
	 D(4,1,2,6)       =         3.141616         180.001346
	 D(4,1,2,7)       =        -1.020724         -58.483187
	 D(4,1,2,8)       =         1.020797          58.487383
	 D(5,1,2,6)       =        -1.047254         -60.003228
	 D(5,1,2,7)       =         1.073591          61.512239
	 D(5,1,2,8)       =         3.115113         178.482809
	 D(7,2,6,9)       =         1.019976          58.440316
	 D(7,2,6,10)      =         3.141423         179.990267
	 D(7,2,6,11)      =        -1.101472         -63.109719
	 D(8,2,6,9)       =        -1.020204         -58.453367
	 D(8,2,6,10)      =         1.101243          63.096584
	 D(8,2,6,11)      =         3.141533         179.996598
	 D(10,6,9,12)     =         1.020798          58.487402
	 D(10,6,9,13)     =         3.115139         178.484299
	 D(10,6,9,14)     =        -1.073550         -61.509894
	 D(11,6,9,12)     =        -1.020690         -58.481234
	 D(11,6,9,13)     =         1.073651          61.515662
	 D(11,6,9,14)     =        -3.115038        -178.478531


	        --- Internal Coordinate Step in ANG or DEG, aJ/ANG or AJ/DEG ---
	-------------------------------------------------------------------------------
	           Coordinate      Previous         Force          Change          New 
	           ----------      --------        ------          ------        ------
	               R(1,2)       1.54112       -0.00030       -0.00006       1.54107
	               R(1,3)       1.08601       -0.00002       -0.00000       1.08601
	               R(1,4)       1.08602        0.00001        0.00000       1.08602
	               R(1,5)       1.08601       -0.00001       -0.00000       1.08601
	               R(2,6)       1.54496        0.00030        0.00005       1.54501
	               R(2,7)       1.08852       -0.00000       -0.00000       1.08852
	               R(2,8)       1.08852        0.00002        0.00000       1.08853
	               R(6,9)       1.54106        0.00021        0.00003       1.54109
	              R(6,10)       1.08852       -0.00000       -0.00000       1.08852
	              R(6,11)       1.08853       -0.00002       -0.00000       1.08852
	              R(9,12)       1.08603       -0.00008       -0.00001       1.08602
	              R(9,13)       1.08601       -0.00003       -0.00000       1.08601
	              R(9,14)       1.08601       -0.00003       -0.00000       1.08601
	             B(1,2,6)     112.45141       -0.00000       -0.00008     112.45133
	             B(1,2,7)     109.31260       -0.00000       -0.00474     109.30786
	             B(1,2,8)     109.31254       -0.00000       -0.00464     109.30790
	             B(2,1,3)     110.74577       -0.00000       -0.00311     110.74266
	             B(2,1,4)     110.60747        0.00000        0.00109     110.60855
	             B(2,1,5)     110.74467       -0.00000       -0.00197     110.74270
	             B(2,6,9)     112.45260       -0.00000       -0.00135     112.45124
	            B(2,6,10)     109.24746        0.00000        0.00172     109.24918
	            B(2,6,11)     109.24813        0.00000        0.00146     109.24959
	             B(3,1,4)     108.23615        0.00000        0.00149     108.23765
	             B(3,1,5)     108.17465        0.00000        0.00134     108.17599
	             B(4,1,5)     108.23636        0.00000        0.00133     108.23769
	             B(6,2,7)     109.24571        0.00000        0.00417     109.24988
	             B(6,2,8)     109.24455        0.00000        0.00513     109.24968
	            B(6,9,12)     110.60987       -0.00000       -0.00166     110.60821
	            B(6,9,13)     110.74021        0.00000        0.00326     110.74347
	            B(6,9,14)     110.74123        0.00000        0.00227     110.74350
	             B(7,2,8)     107.13057        0.00000        0.00018     107.13075
	            B(9,6,10)     109.30814        0.00000        0.00040     109.30854
	            B(9,6,11)     109.30783        0.00000        0.00080     109.30863
	           B(10,6,11)     107.13331       -0.00000       -0.00312     107.13019
	           B(12,9,13)     108.23860       -0.00000       -0.00144     108.23715
	           B(12,9,14)     108.23839       -0.00000       -0.00126     108.23712
	           B(13,9,14)     108.17705       -0.00000       -0.00133     108.17572
	           D(1,2,6,9)     179.99391        0.00000        0.00942     180.00333
	          D(1,2,6,10)     -58.45614        0.00000        0.01023     -58.44590
	          D(1,2,6,11)      58.44388       -0.00000        0.00828      58.45216
	          D(2,6,9,12)     180.00276       -0.00000        0.00276     180.00552
	          D(2,6,9,13)     -60.00034       -0.00000        0.00200     -59.99835
	          D(2,6,9,14)      60.00546        0.00000        0.00395      60.00941
	           D(3,1,2,6)      60.00546       -0.00000        0.00295      60.00841
	           D(3,1,2,7)    -178.47907        0.00000        0.00488    -178.47420
	           D(3,1,2,8)     -61.50851       -0.00000       -0.00026     -61.50877
	           D(4,1,2,6)     180.00135        0.00000        0.00350     180.00485
	           D(4,1,2,7)     -58.48319        0.00000        0.00543     -58.47775
	           D(4,1,2,8)      58.48738       -0.00000        0.00029      58.48768
	           D(5,1,2,6)     -60.00323        0.00000        0.00460     -59.99863
	           D(5,1,2,7)      61.51224        0.00000        0.00653      61.51877
	           D(5,1,2,8)     178.48281       -0.00000        0.00139     178.48420
	           D(7,2,6,9)      58.44032        0.00000        0.01257      58.45288
	          D(7,2,6,10)     179.99027        0.00000        0.01338     180.00365
	          D(7,2,6,11)     -63.10972        0.00000        0.01143     -63.09828
	           D(8,2,6,9)     -58.45337       -0.00000        0.00706     -58.44630
	          D(8,2,6,10)      63.09658       -0.00000        0.00788      63.10446
	          D(8,2,6,11)     179.99660       -0.00000        0.00593     180.00253
	         D(10,6,9,12)      58.48740       -0.00000        0.00120      58.48860
	         D(10,6,9,13)     178.48430       -0.00000        0.00043     178.48473
	         D(10,6,9,14)     -61.50989       -0.00000        0.00239     -61.50751
	         D(11,6,9,12)     -58.48123        0.00000        0.00427     -58.47696
	         D(11,6,9,13)      61.51566        0.00000        0.00350      61.51917
	         D(11,6,9,14)    -178.47853        0.00000        0.00546    -178.47307
	-------------------------------------------------------------------------------

	                                 ==> Convergence Check <==                                  
    
	Measures of convergence in internal coordinates in au.
    
	Criteria marked as inactive (o), active & met (*), and active & unmet ( ).

	----------------------------------------------------------------------------------------------
	   Step    Total Energy     Delta E     Max Force     RMS Force      Max Disp      RMS Disp   
	----------------------------------------------------------------------------------------------
	  Convergence Criteria     1.00e-06 *    3.00e-04 *             o    1.20e-03 *             o
	----------------------------------------------------------------------------------------------
	     2    -155.46664624   -8.55e-08 *    3.69e-05 *    8.82e-06 o    2.34e-04 *    7.99e-05 o  ~
	----------------------------------------------------------------------------------------------

Next Geometry in Ang 
	Fragment 1 (Ang)

	    C   0.6183852641  -0.3568437417  -1.8360904233
	    C   0.6183226778  -0.3569398439  -0.2950211624
	    H   0.6184804374   0.6587948310  -2.2206602235
	    H   1.4987250989  -0.8650944546  -2.2183445247
	    H  -0.2611245754  -0.8646661557  -2.2207917819
	    C  -0.6183514109   0.3568908381   0.2950099308
	    H   0.6455817109  -1.3839012634   0.0648298387
	    H   1.5212314983   0.1330147078   0.0649609518
	    C  -0.6183704768   0.3568652345   1.8360981648
	    H  -0.6456348547   1.3838311417  -0.0648995447
	    H  -1.5212576664  -0.1330923219  -0.0649370819
	    H  -1.4988024827   0.8649543158   2.2183466897
	    H  -0.6182539018  -0.6587503991   2.2207289601
	    H   0.2610383453   0.8648874895   2.2207655672


    Final optimized geometry and variables:
    Molecular point group: c1
    Full point group: C1

    Geometry (in Angstrom), charge = 0, multiplicity = 1:

    C       
    C             1    1.541125
    H             1    1.086011      2  110.745766
    H             1    1.086017      2  110.607466      3  119.995888
    H             1    1.086010      2  110.744669      3 -120.008686
    C             2    1.544959      1  112.451410      3   60.005458
    H             2    1.088524      1  109.312599      6  121.515467
    H             2    1.088522      1  109.312541      6 -121.513964
    C             6    1.541055      2  112.452596      1    dihedral
    H             6    1.088525      2  109.247455      9  121.549951
    H             6    1.088526      2  109.248134      9 -121.550034
    H             9    1.086025      6  110.609866     10   58.487402
    H             9    1.086012      6  110.740213     12  119.996897
    H             9    1.086013      6  110.741234     12 -119.997296

    dihedral  =  179.9939137443

Molecule: Setting geometry variable dihedral to 59.941429

Scratch directory: /tmp/
gradient() will perform analytic gradient computation.
   => Libint2 <=

    Primary   basis highest AM E, G, H:  5, 4, 3
    Auxiliary basis highest AM E, G, H:  6, 5, 4
    Onebody   basis highest AM E, G, H:  6, 5, 4
    Solid Harmonics ordering:            Gaussian

*** tstart() called on Barrys-MacBook-Pro.local
*** at Thu May  9 18:42:11 2024

   => Loading Basis Set <=

    Name: STO-3G
    Role: ORBITAL
    Keyword: BASIS
    atoms 1-2, 6, 9       entry C          line    61 file /Users/blink/psi4conda/share/psi4/basis/sto-3g.gbs 
    atoms 3-5, 7-8, 10-14 entry H          line    19 file /Users/blink/psi4conda/share/psi4/basis/sto-3g.gbs 


         ---------------------------------------------------------
                                   SCF
               by Justin Turney, Rob Parrish, Andy Simmonett
                          and Daniel G. A. Smith
                              RHF Reference
                        4 Threads,    953 MiB Core
         ---------------------------------------------------------

  ==> Geometry <==

    Molecular point group: c1
    Full point group: C1

    Geometry (in Angstrom), charge = 0, multiplicity = 1:

       Center              X                  Y                   Z               Mass       
    ------------   -----------------  -----------------  -----------------  -----------------
         C            0.960197902070    -0.187885763383    -1.325236221543    12.000000000000
         C            0.960197902070    -0.187885763383     0.215853778457    12.000000000000
         H            0.960197902070     0.827751152588    -1.709776387098     1.007825032230
         H            1.840557697682    -0.696094267232    -1.707466229420     1.007825032230
         H            0.080688640982    -0.695804556218    -1.709773959044     1.007825032230
         C           -0.275444914482     0.527923077232     0.805797401151    12.000000000000
         H            0.985892839296    -1.214917146233     0.575603583465     1.007825032230
         H            1.863915938850     0.300691401825     0.575655807299     1.007825032230
         C           -1.599733162681    -0.129695867948     0.371056276822    12.000000000000
         H           -0.209633032789     0.520734749917     1.892297299634     1.007825032230
         H           -0.270762771001     1.569967162049     0.491171774276     1.007825032230
         H           -2.446824552200     0.394903942544     0.803054972006     1.007825032230
         H           -1.702666316842    -0.109357696909    -0.709855259168     1.007825032230
         H           -1.639766074543    -1.165250707000     0.695719963303     1.007825032230

  Running in c1 symmetry.

  Rotational constants: A =      0.42506  B =      0.16472  C =      0.13735 [cm^-1]
  Rotational constants: A =  12742.86111  B =   4938.14958  C =   4117.50400 [MHz]
  Nuclear repulsion =  132.731758926599724

  Charge       = 0
  Multiplicity = 1
  Electrons    = 34
  Nalpha       = 17
  Nbeta        = 17

  ==> Algorithm <==

  SCF Algorithm Type is DIRECT.
  DIIS enabled.
  MOM disabled.
  Fractional occupation disabled.
  Guess Type is SAD.
  Energy threshold   = 1.00e-08
  Density threshold  = 1.00e-08
  Integral threshold = 1.00e-08

  ==> Primary Basis <==

  -AO BASIS SET INFORMATION:
    Name                   = STO-3G
    Blend                  = STO-3G
    Total number of shells = 22
    Number of primitives   = 66
    Number of AO           = 30
    Number of SO           = 30
    Maximum AM             = 1
    Spherical Harmonics    = TRUE

  -Contraction Scheme:
    Atom   Type   All Primitives // Shells:
   ------ ------ --------------------------
       1     C     6s 3p // 2s 1p 
       2     C     6s 3p // 2s 1p 
       3     H     3s // 1s 
       4     H     3s // 1s 
       5     H     3s // 1s 
       6     C     6s 3p // 2s 1p 
       7     H     3s // 1s 
       8     H     3s // 1s 
       9     C     6s 3p // 2s 1p 
      10     H     3s // 1s 
      11     H     3s // 1s 
      12     H     3s // 1s 
      13     H     3s // 1s 
      14     H     3s // 1s 

   => Loading Basis Set <=

    Name: (STO-3G AUX)
    Role: JKFIT
    Keyword: DF_BASIS_SCF
    atoms 1-2, 6, 9       entry C          line   198 file /Users/blink/psi4conda/share/psi4/basis/def2-universal-jkfit.gbs 
    atoms 3-5, 7-8, 10-14 entry H          line    18 file /Users/blink/psi4conda/share/psi4/basis/def2-universal-jkfit.gbs 

  Starting with a DF guess...

  ==> Integral Setup <==

  DFHelper Memory: AOs need 0.005 GiB; user supplied 0.698 GiB. 
  Using in-core AOs.

  ==> MemDFJK: Density-Fitted J/K Matrices <==

    J tasked:                   Yes
    K tasked:                   Yes
    wK tasked:                   No
    OpenMP threads:               4
    Memory [MiB]:               715
    Algorithm:                 Core
    Schwarz Cutoff:           1E-08
    Mask sparsity (%):       0.6667
    Fitting Condition:        1E-10

   => Auxiliary Basis Set <=

  -AO BASIS SET INFORMATION:
    Name                   = (STO-3G AUX)
    Blend                  = DEF2-UNIVERSAL-JKFIT
    Total number of shells = 160
    Number of primitives   = 212
    Number of AO           = 556
    Number of SO           = 480
    Maximum AM             = 4
    Spherical Harmonics    = TRUE

  -Contraction Scheme:
    Atom   Type   All Primitives // Shells:
   ------ ------ --------------------------
       1     C     14s 10p 6d 2f 1g // 10s 8p 5d 1f 1g 
       2     C     14s 10p 6d 2f 1g // 10s 8p 5d 1f 1g 
       3     H     4s 2p 2d // 2s 2p 2d 
       4     H     4s 2p 2d // 2s 2p 2d 
       5     H     4s 2p 2d // 2s 2p 2d 
       6     C     14s 10p 6d 2f 1g // 10s 8p 5d 1f 1g 
       7     H     4s 2p 2d // 2s 2p 2d 
       8     H     4s 2p 2d // 2s 2p 2d 
       9     C     14s 10p 6d 2f 1g // 10s 8p 5d 1f 1g 
      10     H     4s 2p 2d // 2s 2p 2d 
      11     H     4s 2p 2d // 2s 2p 2d 
      12     H     4s 2p 2d // 2s 2p 2d 
      13     H     4s 2p 2d // 2s 2p 2d 
      14     H     4s 2p 2d // 2s 2p 2d 

  Minimum eigenvalue in the overlap matrix is 1.9943644158E-01.
  Reciprocal condition number of the overlap matrix is 7.6500876481E-02.
    Using symmetric orthogonalization.

  ==> Pre-Iterations <==

  SCF Guess: Superposition of Atomic Densities via on-the-fly atomic UHF (no occupation information).

   -------------------------
    Irrep   Nso     Nmo    
   -------------------------
     A         30      30 
   -------------------------
    Total      30      30
   -------------------------

  ==> Iterations <==

                           Total Energy        Delta E     RMS |[F,P]|

   @DF-RHF iter SAD:  -151.52294438044606   -1.51523e+02   0.00000e+00 
   @DF-RHF iter   1:  -155.45704434447327   -3.93410e+00   3.46017e-03 ADIIS/DIIS
   @DF-RHF iter   2:  -155.46454970048478   -7.50536e-03   6.88484e-04 ADIIS/DIIS
   @DF-RHF iter   3:  -155.46492583773457   -3.76137e-04   1.57591e-04 ADIIS/DIIS
   @DF-RHF iter   4:  -155.46494293286418   -1.70951e-05   8.04803e-06 DIIS
   @DF-RHF iter   5:  -155.46494298385286   -5.09887e-08   1.07331e-06 DIIS
   @DF-RHF iter   6:  -155.46494298454473   -6.91870e-10   1.43788e-07 DIIS
   @DF-RHF iter   7:  -155.46494298456085   -1.61151e-11   1.79540e-08 DIIS
   @DF-RHF iter   8:  -155.46494298456116   -3.12639e-13   2.36700e-09 DIIS

  DF guess converged.

  ==> DirectJK: Integral-Direct J/K Matrices <==

    J tasked:                  Yes
    K tasked:                  Yes
    wK tasked:                  No
    Integrals threads:           4
    Screening Type:           CSAM
    Screening Cutoff:        1E-08
    Incremental Fock:           No

   @RHF iter   9:  -155.46442883844622   -1.55464e+02   4.37730e-06 DIIS
   @RHF iter  10:  -155.46442884678311   -8.33688e-09   7.54546e-07 DIIS
   @RHF iter  11:  -155.46442884706852   -2.85411e-10   1.22299e-07 DIIS
   @RHF iter  12:  -155.46442884708026   -1.17382e-11   2.06608e-08 DIIS
   @RHF iter  13:  -155.46442884708080   -5.40012e-13   5.93064e-10 DIIS
[...]
        Angle 2-7-11:   28.534
        Angle 2-7-12:   68.200
        Angle 2-7-13:   63.911
        Angle 2-7-14:   90.554
        Angle 3-7-4:   35.016
        Angle 3-7-5:   35.018
        Angle 3-7-6:   62.546
        Angle 3-7-8:   55.383
        Angle 3-7-9:   74.253
        Angle 3-7-10:   84.573
        Angle 3-7-11:   50.113
        Angle 3-7-12:   78.715
        Angle 3-7-13:   61.067
        Angle 3-7-14:   94.204
        Angle 4-7-5:   41.071
        Angle 4-7-6:   97.559
        Angle 4-7-8:   67.956
        Angle 4-7-9:  104.005
        Angle 4-7-10:  118.393
        Angle 4-7-11:   84.866
        Angle 4-7-12:  110.329
        Angle 4-7-13:   86.432
        Angle 4-7-14:  118.133
        Angle 5-7-6:   75.975
        Angle 5-7-8:   90.347
        Angle 5-7-9:   66.773
        Angle 5-7-10:  101.583
        Angle 5-7-11:   69.272
        Angle 5-7-12:   74.523
        Angle 5-7-13:   47.568
        Angle 5-7-14:   77.242
        Angle 6-7-8:   65.757
        Angle 6-7-9:   33.191
        Angle 6-7-10:   25.618
        Angle 6-7-11:   13.895
        Angle 6-7-12:   29.513
        Angle 6-7-13:   42.969
        Angle 6-7-14:   53.539
        Angle 8-7-9:   98.053
        Angle 8-7-10:   66.020
        Angle 8-7-11:   55.085
        Angle 8-7-12:   95.270
        Angle 8-7-13:   99.320
        Angle 8-7-14:  119.285
        Angle 9-7-10:   47.517
        Angle 9-7-11:   43.030
        Angle 9-7-12:    8.332
        Angle 9-7-13:   19.454
        Angle 9-7-14:   22.839
        Angle 10-7-11:   34.918
        Angle 10-7-12:   40.036
        Angle 10-7-13:   63.666
        Angle 10-7-14:   59.254
        Angle 11-7-12:   41.346
        Angle 11-7-13:   47.141
        Angle 11-7-14:   65.091
        Angle 12-7-13:   27.614
        Angle 12-7-14:   24.036
        Angle 13-7-14:   33.392
        Angle 1-8-2:   42.671
        Angle 1-8-3:   25.306
        Angle 1-8-4:   26.178
        Angle 1-8-5:   13.230
        Angle 1-8-6:   73.870
        Angle 1-8-7:   66.288
        Angle 1-8-9:   63.645
        Angle 1-8-10:  100.221
        Angle 1-8-11:   73.312
        Angle 1-8-12:   72.151
        Angle 1-8-13:   48.208
        Angle 1-8-14:   67.181
        Angle 2-8-3:   59.232
        Angle 2-8-4:   61.964
        Angle 2-8-5:   29.574
        Angle 2-8-6:   42.964
        Angle 2-8-7:   36.477
        Angle 2-8-9:   27.759
        Angle 2-8-10:   63.582
        Angle 2-8-11:   59.326
        Angle 2-8-12:   38.535
        Angle 2-8-13:   20.195
        Angle 2-8-14:   24.868
        Angle 3-8-4:   41.332
        Angle 3-8-5:   35.050
        Angle 3-8-6:   73.762
        Angle 3-8-7:   89.795
        Angle 3-8-9:   69.948
        Angle 3-8-10:   99.880
        Angle 3-8-11:   62.067
        Angle 3-8-12:   74.581
        Angle 3-8-13:   54.720
        Angle 3-8-14:   79.994
        Angle 4-8-5:   34.971
        Angle 4-8-6:   99.241
        Angle 4-8-7:   70.745
        Angle 4-8-9:   87.270
        Angle 4-8-10:  124.520
        Angle 4-8-11:   98.956
        Angle 4-8-12:   96.826
        Angle 4-8-13:   72.802
        Angle 4-8-14:   86.428
        Angle 5-8-6:   64.429
        Angle 5-8-7:   54.800
        Angle 5-8-9:   52.441
        Angle 5-8-10:   89.639
        Angle 5-8-11:   69.134
        Angle 5-8-12:   61.856
        Angle 5-8-13:   37.857
        Angle 5-8-14:   54.288
        Angle 6-8-7:   66.427
        Angle 6-8-9:   15.660
        Angle 6-8-10:   26.907
        Angle 6-8-11:   25.590
        Angle 6-8-12:    5.585
        Angle 6-8-13:   26.673
        Angle 6-8-14:   29.597
        Angle 7-8-9:   52.278
        Angle 7-8-10:   72.298
        Angle 7-8-11:   89.997
        Angle 7-8-12:   60.843
        Angle 7-8-13:   54.262
        Angle 7-8-14:   36.842
        Angle 9-8-10:   37.250
        Angle 9-8-11:   37.785
        Angle 9-8-12:   10.802
        Angle 9-8-13:   15.836
        Angle 9-8-14:   16.635
        Angle 10-8-11:   41.682
        Angle 10-8-12:   28.070
        Angle 10-8-13:   52.084
        Angle 10-8-14:   41.211
        Angle 11-8-12:   30.778
        Angle 11-8-13:   39.165
        Angle 11-8-14:   53.994
        Angle 12-8-13:   24.071
        Angle 12-8-14:   24.013
        Angle 13-8-14:   26.521
        Angle 1-9-2:   28.535
        Angle 1-9-3:   17.566
        Angle 1-9-4:    7.095
        Angle 1-9-5:   19.800
        Angle 1-9-6:   53.342
        Angle 1-9-7:   41.627
        Angle 1-9-8:   37.167
        Angle 1-9-10:   79.188
        Angle 1-9-11:   59.298
        Angle 1-9-12:  151.597
        Angle 1-9-13:   66.050
        Angle 1-9-14:   99.835
        Angle 2-9-3:   37.665
        Angle 2-9-4:   25.907
        Angle 2-9-5:   46.137
        Angle 2-9-6:   33.121
        Angle 2-9-7:   22.898
        Angle 2-9-8:   11.294
        Angle 2-9-10:   53.071
        Angle 2-9-11:   53.323
        Angle 2-9-12:  143.260
        Angle 2-9-13:   94.581
        Angle 2-9-14:   90.874
        Angle 3-9-4:   24.592
        Angle 3-9-5:   29.622
        Angle 3-9-6:   50.317
        Angle 3-9-7:   56.332
        Angle 3-9-8:   41.951
        Angle 3-9-10:   78.767
        Angle 3-9-11:   46.681
        Angle 3-9-12:  134.256
        Angle 3-9-13:   61.917
        Angle 3-9-14:  117.390
        Angle 4-9-5:   20.237
        Angle 4-9-6:   54.550
        Angle 4-9-7:   35.522
        Angle 4-9-8:   35.963
        Angle 4-9-10:   78.491
        Angle 4-9-11:   64.067
        Angle 4-9-12:  158.097
        Angle 4-9-13:   69.425
        Angle 4-9-14:   92.877
        Angle 5-9-6:   73.141
        Angle 5-9-7:   51.797
        Angle 5-9-8:   56.054
        Angle 5-9-10:   98.521
        Angle 5-9-11:   76.102
        Angle 5-9-12:  154.288
        Angle 5-9-13:   50.178
        Angle 5-9-14:   93.404
        Angle 6-9-7:   50.263
        Angle 6-9-8:   22.161
        Angle 6-9-10:   28.595
        Angle 6-9-11:   28.381
        Angle 6-9-12:  110.241
        Angle 6-9-13:  111.295
        Angle 6-9-14:  110.732
        Angle 7-9-8:   29.668
        Angle 7-9-10:   59.170
        Angle 7-9-11:   74.932
        Angle 7-9-12:  149.747
        Angle 7-9-13:  101.371
        Angle 7-9-14:   67.977
        Angle 8-9-10:   42.529
        Angle 8-9-11:   45.313
        Angle 8-9-12:  132.012
        Angle 8-9-13:  102.431
        Angle 8-9-14:   95.973
        Angle 10-9-11:   47.869
        Angle 10-9-12:   92.774
        Angle 10-9-13:  139.750
        Angle 10-9-14:   96.720
        Angle 11-9-12:   95.137
        Angle 11-9-13:   95.107
        Angle 11-9-14:  139.109
        Angle 12-9-13:  108.017
        Angle 12-9-14:  108.187
        Angle 13-9-14:  108.262
        Angle 1-10-2:   15.660
        Angle 1-10-3:   16.635
        Angle 1-10-4:   10.802
        Angle 1-10-5:   15.836
        Angle 1-10-6:   27.759
        Angle 1-10-7:   37.785
        Angle 1-10-8:   37.250
        Angle 1-10-9:   63.645
        Angle 1-10-11:   52.278
        Angle 1-10-12:   87.270
        Angle 1-10-13:   52.441
        Angle 1-10-14:   69.948
        Angle 2-10-3:   29.598
        Angle 2-10-4:    5.585
        Angle 2-10-5:   26.673
        Angle 2-10-6:   42.964
        Angle 2-10-7:   25.590
        Angle 2-10-8:   26.907
        Angle 2-10-9:   73.870
        Angle 2-10-11:   66.427
        Angle 2-10-12:   99.241
        Angle 2-10-13:   64.429
        Angle 2-10-14:   73.762
        Angle 3-10-4:   24.013
        Angle 3-10-5:   26.521
        Angle 3-10-6:   24.868
        Angle 3-10-7:   53.994
        Angle 3-10-8:   41.211
        Angle 3-10-9:   67.181
        Angle 3-10-11:   36.842
        Angle 3-10-12:   86.428
        Angle 3-10-13:   54.288
        Angle 3-10-14:   79.994
        Angle 4-10-5:   24.071
        Angle 4-10-6:   38.535
        Angle 4-10-7:   30.778
        Angle 4-10-8:   28.070
        Angle 4-10-9:   72.151
        Angle 4-10-11:   60.843
        Angle 4-10-12:   96.826
        Angle 4-10-13:   61.856
        Angle 4-10-14:   74.581
        Angle 5-10-6:   20.195
        Angle 5-10-7:   39.165
        Angle 5-10-8:   52.084
        Angle 5-10-9:   48.208
        Angle 5-10-11:   54.262
        Angle 5-10-12:   72.802
        Angle 5-10-13:   37.857
        Angle 5-10-14:   54.720
        Angle 6-10-7:   59.326
        Angle 6-10-8:   63.582
        Angle 6-10-9:   42.671
        Angle 6-10-11:   36.477
        Angle 6-10-12:   61.964
        Angle 6-10-13:   29.574
        Angle 6-10-14:   59.232
        Angle 7-10-8:   41.682
        Angle 7-10-9:   73.312
        Angle 7-10-11:   89.998
        Angle 7-10-12:   98.956
        Angle 7-10-13:   69.134
        Angle 7-10-14:   62.067
        Angle 8-10-9:  100.221
        Angle 8-10-11:   72.298
        Angle 8-10-12:  124.520
        Angle 8-10-13:   89.639
        Angle 8-10-14:   99.880
        Angle 9-10-11:   66.288
        Angle 9-10-12:   26.178
        Angle 9-10-13:   13.230
        Angle 9-10-14:   25.306
        Angle 11-10-12:   70.745
        Angle 11-10-13:   54.800
        Angle 11-10-14:   89.795
        Angle 12-10-13:   34.971
        Angle 12-10-14:   41.332
        Angle 13-10-14:   35.050
        Angle 1-11-2:   33.191
        Angle 1-11-3:   22.839
        Angle 1-11-4:    8.332
        Angle 1-11-5:   19.454
        Angle 1-11-6:   67.715
        Angle 1-11-7:   43.030
        Angle 1-11-8:   47.517
        Angle 1-11-9:   79.075
        Angle 1-11-10:   98.053
        Angle 1-11-12:  104.005
        Angle 1-11-13:   66.773
        Angle 1-11-14:   74.253
        Angle 2-11-3:   53.539
        Angle 2-11-4:   29.513
        Angle 2-11-5:   42.969
        Angle 2-11-6:   42.417
        Angle 2-11-7:   13.895
        Angle 2-11-8:   25.618
        Angle 2-11-9:   73.500
        Angle 2-11-10:   65.757
        Angle 2-11-12:   97.559
        Angle 2-11-13:   75.975
        Angle 2-11-14:   62.546
        Angle 3-11-4:   24.036
        Angle 3-11-5:   33.392
        Angle 3-11-6:   90.554
        Angle 3-11-7:   65.091
        Angle 3-11-8:   59.254
        Angle 3-11-9:   95.999
        Angle 3-11-10:  119.285
        Angle 3-11-12:  118.133
        Angle 3-11-13:   77.242
        Angle 3-11-14:   94.204
        Angle 4-11-5:   27.614
        Angle 4-11-6:   68.200
        Angle 4-11-7:   41.346
        Angle 4-11-8:   40.036
        Angle 4-11-9:   84.947
        Angle 4-11-10:   95.270
        Angle 4-11-12:  110.329
        Angle 4-11-13:   74.523
        Angle 4-11-14:   78.715
        Angle 5-11-6:   63.911
        Angle 5-11-7:   47.141
        Angle 5-11-8:   63.666
        Angle 5-11-9:   62.835
        Angle 5-11-10:   99.320
        Angle 5-11-12:   86.432
        Angle 5-11-13:   47.568
        Angle 5-11-14:   61.067
        Angle 6-11-7:   28.534
        Angle 6-11-8:   58.734
        Angle 6-11-9:   42.308
        Angle 6-11-10:   36.476
        Angle 6-11-12:   59.807
        Angle 6-11-13:   60.513
        Angle 6-11-14:   28.904
        Angle 7-11-8:   34.918
        Angle 7-11-9:   62.039
        Angle 7-11-10:   55.085
        Angle 7-11-12:   84.866
        Angle 7-11-13:   69.272
        Angle 7-11-14:   50.113
        Angle 8-11-9:   96.902
        Angle 8-11-10:   66.020
        Angle 8-11-12:  118.394
        Angle 8-11-13:  101.583
        Angle 8-11-14:   84.573
        Angle 9-11-10:   65.843
        Angle 9-11-12:   25.588
        Angle 9-11-13:   25.577
        Angle 9-11-14:   13.408
        Angle 10-11-12:   67.956
        Angle 10-11-13:   90.347
        Angle 10-11-14:   55.383
        Angle 12-11-13:   41.071
        Angle 12-11-14:   35.016
        Angle 13-11-14:   35.018
        Angle 1-12-2:   20.904
        Angle 1-12-3:   14.361
        Angle 1-12-4:    4.463
        Angle 1-12-5:   14.964
        Angle 1-12-6:   31.396
        Angle 1-12-7:   30.985
        Angle 1-12-8:   29.358
        Angle 1-12-9:   21.308
        Angle 1-12-10:   56.768
        Angle 1-12-11:   40.473
        Angle 1-12-13:   35.201
        Angle 1-12-14:   57.005
        Angle 2-12-3:   29.582
        Angle 2-12-4:   18.395
        Angle 2-12-5:   33.488
        Angle 2-12-6:   15.776
        Angle 2-12-7:   16.690
        Angle 2-12-8:   11.110
        Angle 2-12-9:   26.104
        Angle 2-12-10:   37.168
        Angle 2-12-11:   37.584
        Angle 2-12-13:   54.703
        Angle 2-12-14:   52.639
        Angle 3-12-4:   18.696
        Angle 3-12-5:   23.702
        Angle 3-12-6:   33.305
        Angle 3-12-7:   43.434
        Angle 3-12-8:   33.794
        Angle 3-12-9:   35.499
        Angle 3-12-10:   59.438
        Angle 3-12-11:   31.537
        Angle 3-12-13:   38.139
        Angle 3-12-14:   71.328
        Angle 4-12-5:   15.394
        Angle 4-12-6:   30.767
        Angle 4-12-7:   26.816
        Angle 4-12-8:   27.969
        Angle 4-12-9:   17.439
        Angle 4-12-10:   55.205
        Angle 4-12-11:   42.855
        Angle 4-12-13:   36.479
        Angle 4-12-14:   52.827
        Angle 5-12-6:   46.020
        Angle 5-12-7:   37.823
        Angle 5-12-8:   43.363
        Angle 5-12-9:   18.834
        Angle 5-12-10:   70.541
        Angle 5-12-11:   54.125
        Angle 5-12-13:   21.217
        Angle 5-12-14:   52.400
        Angle 6-12-7:   29.428
        Angle 6-12-8:    5.541
        Angle 6-12-9:   41.772
        Angle 6-12-10:   26.266
        Angle 6-12-11:   25.681
        Angle 6-12-13:   66.587
        Angle 6-12-14:   66.323
        Angle 7-12-8:   23.887
        Angle 7-12-9:   21.921
        Angle 7-12-10:   41.008
        Angle 7-12-11:   53.787
        Angle 7-12-13:   57.437
        Angle 7-12-14:   36.908
        Angle 8-12-9:   37.186
        Angle 8-12-10:   27.410
        Angle 8-12-11:   30.829
        Angle 8-12-13:   64.370
        Angle 8-12-14:   60.783
        Angle 9-12-10:   61.048
        Angle 9-12-11:   59.275
        Angle 9-12-13:   35.975
        Angle 9-12-14:   35.908
        Angle 10-12-11:   41.299
        Angle 10-12-13:   91.683
        Angle 10-12-14:   71.299
        Angle 11-12-13:   69.436
        Angle 11-12-14:   90.220
        Angle 13-12-14:   60.054
        Angle 1-13-2:   30.745
        Angle 1-13-3:   19.918
        Angle 1-13-4:    6.878
        Angle 1-13-5:   20.470
        Angle 1-13-6:   58.732
        Angle 1-13-7:   41.063
        Angle 1-13-8:   33.270
        Angle 1-13-9:   94.150
        Angle 1-13-10:   71.505
        Angle 1-13-11:   61.430
        Angle 1-13-12:  124.562
        Angle 1-13-14:   95.049
        Angle 2-13-3:   41.700
        Angle 2-13-4:   32.778
        Angle 2-13-5:   47.804
        Angle 2-13-6:   31.876
        Angle 2-13-7:   19.803
        Angle 2-13-8:    7.482
        Angle 2-13-9:   63.407
        Angle 2-13-10:   42.328
        Angle 2-13-11:   46.720
        Angle 2-13-12:   95.510
        Angle 2-13-14:   70.101
        Angle 3-13-4:   25.977
        Angle 3-13-5:   33.068
        Angle 3-13-6:   60.102
        Angle 3-13-7:   57.480
        Angle 3-13-8:   40.336
        Angle 3-13-9:  100.576
        Angle 3-13-10:   74.301
        Angle 3-13-11:   52.652
        Angle 3-13-12:  121.929
        Angle 3-13-14:  111.324
        Angle 4-13-5:   15.472
        Angle 4-13-6:   62.783
        Angle 4-13-7:   39.443
        Angle 4-13-8:   36.657
        Angle 4-13-9:   95.611
        Angle 4-13-10:   74.781
        Angle 4-13-11:   67.654
        Angle 4-13-12:  128.126
        Angle 4-13-14:   92.286
        Angle 5-13-6:   78.252
        Angle 5-13-7:   50.836
        Angle 5-13-8:   52.086
        Angle 5-13-9:  109.352
        Angle 5-13-10:   90.057
        Angle 5-13-11:   81.597
        Angle 5-13-12:  143.310
        Angle 5-13-14:   99.283
        Angle 6-13-7:   42.524
        Angle 6-13-8:   26.286
        Angle 6-13-9:   41.128
        Angle 6-13-10:   14.243
        Angle 6-13-11:   25.718
        Angle 6-13-12:   65.839
        Angle 6-13-14:   66.020
        Angle 7-13-8:   26.418
        Angle 7-13-9:   59.174
        Angle 7-13-10:   47.200
        Angle 7-13-11:   63.587
        Angle 7-13-12:   94.949
        Angle 7-13-14:   54.232
        Angle 8-13-9:   61.733
        Angle 8-13-10:   38.277
        Angle 8-13-11:   39.252
        Angle 8-13-12:   91.559
        Angle 8-13-14:   73.250
        Angle 9-13-10:   27.020
        Angle 9-13-11:   59.315
        Angle 9-13-12:   36.009
        Angle 9-13-14:   35.887
        Angle 10-13-11:   34.853
        Angle 10-13-12:   53.346
        Angle 10-13-14:   55.449
        Angle 11-13-12:   69.493
        Angle 11-13-14:   90.248
        Angle 12-13-14:   60.048
        Angle 1-14-2:   24.854
        Angle 1-14-3:   13.408
        Angle 1-14-4:   10.245
        Angle 1-14-5:   17.508
        Angle 1-14-6:   46.594
        Angle 1-14-7:   37.319
        Angle 1-14-8:   34.053
        Angle 1-14-9:   62.599
        Angle 1-14-10:   68.101
        Angle 1-14-11:   49.415
        Angle 1-14-12:   98.403
        Angle 1-14-13:   55.329
        Angle 2-14-3:   29.067
        Angle 2-14-4:   24.984
        Angle 2-14-5:   42.120
        Angle 2-14-6:   32.951
        Angle 2-14-7:   22.684
        Angle 2-14-8:    9.334
        Angle 2-14-9:   66.500
        Angle 2-14-10:   47.119
        Angle 2-14-11:   42.905
        Angle 2-14-12:   97.667
        Angle 2-14-13:   74.019
        Angle 3-14-4:   23.627
        Angle 3-14-5:   23.210
        Angle 3-14-6:   39.034
        Angle 3-14-7:   47.330
        Angle 3-14-8:   36.692
        Angle 3-14-9:   49.203
        Angle 3-14-10:   63.314
        Angle 3-14-11:   38.466
        Angle 3-14-12:   85.045
        Angle 3-14-13:   45.466
        Angle 4-14-5:   19.932
        Angle 4-14-6:   52.936
        Angle 4-14-7:   30.330
        Angle 4-14-8:   34.134
        Angle 4-14-9:   72.763
        Angle 4-14-10:   71.625
        Angle 4-14-11:   57.851
        Angle 4-14-12:  108.477
        Angle 4-14-13:   64.012
        Angle 5-14-6:   61.844
        Angle 5-14-7:   50.106
        Angle 5-14-8:   51.412
        Angle 5-14-9:   66.678
        Angle 5-14-10:   84.944
        Angle 5-14-11:   61.453
        Angle 5-14-12:  101.623
        Angle 5-14-13:   47.649
        Angle 6-14-7:   53.116
        Angle 6-14-8:   29.252
        Angle 6-14-9:   41.463
        Angle 6-14-10:   25.441
        Angle 6-14-11:   13.984
        Angle 6-14-12:   65.952
        Angle 6-14-13:   66.397
        Angle 7-14-8:   23.873
        Angle 7-14-9:   89.184
        Angle 7-14-10:   58.679
        Angle 7-14-11:   64.795
        Angle 7-14-12:  119.057
        Angle 7-14-13:   92.376
        Angle 8-14-9:   67.392
        Angle 8-14-10:   38.909
        Angle 8-14-11:   41.433
        Angle 8-14-12:   95.204
        Angle 8-14-13:   80.229
        Angle 9-14-10:   57.973
        Angle 9-14-11:   27.484
        Angle 9-14-12:   35.905
        Angle 9-14-13:   35.851
        Angle 10-14-11:   34.821
        Angle 10-14-12:   67.369
        Angle 10-14-13:   89.501
        Angle 11-14-12:   54.765
        Angle 11-14-13:   54.734
        Angle 12-14-13:   59.898


    Molecular point group: c1
    Full point group: C1

    Geometry (in Angstrom), charge = 0, multiplicity = 1:

    C       
    C             1    1.541618
    H             1    1.086030      2  110.732380
    H             1    1.085967      2  110.241301      3  119.688024
    H             1    1.085078      2  111.294725      3 -120.474566
    C             2    1.547199      1  113.891807      3   56.612337
    H             2    1.088639      1  109.311332      6  122.500172
    H             2    1.088621      1  108.733651      6 -120.958230
    C             6    1.541618      2  113.891847      1    dihedral
    H             6    1.088621      2  108.381264      9  121.154608
    H             6    1.088640      2  109.249617      9 -122.534077
    H             9    1.085967      6  110.241364     10   55.342330
    H             9    1.085078      6  111.294676     12  119.837419
    H             9    1.086030      6  110.732333     12 -119.688032

    dihedral  =   66.5082573068

