
    -----------------------------------------------------------------------
          Psi4: An Open-Source Ab Initio Electronic Structure Package
                               Psi4 1.10 release

                         Git: Rev {} zzzzzzz 


    D. G. A. Smith, L. A. Burns, A. C. Simmonett, R. M. Parrish,
    M. C. Schieber, R. Galvelis, P. Kraus, H. Kruse, R. Di Remigio,
    A. Alenaizan, A. M. James, S. Lehtola, J. P. Misiewicz, M. Scheurer,
    R. A. Shaw, J. B. Schriber, Y. Xie, Z. L. Glick, D. A. Sirianni,
    J. S. O'Brien, J. M. Waldrop, A. Kumar, E. G. Hohenstein,
    B. P. Pritchard, B. R. Brooks, H. F. Schaefer III, A. Yu. Sokolov,
    K. Patkowski, A. E. DePrince III, U. Bozkaya, R. A. King,
    F. A. Evangelista, J. M. Turney, T. D. Crawford, C. D. Sherrill,
    J. Chem. Phys. 152(18) 184108 (2020). https://doi.org/10.1063/5.0006002

                            Additional Code Authors
    E. T. Seidl, C. L. Janssen, E. F. Valeev, M. L. Leininger,
    J. F. Gonthier, R. M. Richard, H. R. McAlexander, M. Saitow, X. Wang,
    P. Verma, M. H. Lechner, A. Jiang, S. Behnle, A. G. Heide,
    M. F. Herbst, D. L. Poole, T. Győri, E. C. Mitchell, J. P. Pederson,
    and A. M. Wallace

             Previous Authors, Complete List of Code Contributors,
                       and Citations for Specific Modules
    https://github.com/psi4/psi4/blob/master/codemeta.json
    https://github.com/psi4/psi4/graphs/contributors
    https://psicode.org/psi4manual/master/introduction.html#citing-psifour

    -----------------------------------------------------------------------


    Psi4 started on: Monday, 30 March 2026 03:14PM

    Process ID: 2575
    Host:       PC001.IRVING.UPEI.CA
    PSIDATADIR: /opt/anaconda3/envs/p4dev/share/psi4
    Memory:     953.7 MiB
    Threads:    4
    Addons:     a̶d̶c̶c̶, a̶m̶b̶i̶t̶, b̶s̶e̶, c̶c̶t̶3̶, c̶f̶o̶u̶r̶, c̶h̶e̶m̶p̶s̶2̶, c̶p̶p̶e̶, d̶d̶x̶,
                d̶f̶t̶d̶3̶, d̶f̶t̶d̶4̶, dkh, ecpint, einsums, f̶o̶r̶t̶e̶, g̶a̶u̶x̶c̶, g̶c̶p̶,
                g̶d̶m̶a̶, g̶e̶o̶m̶e̶t̶r̶i̶c̶, g̶p̶u̶_̶d̶f̶c̶c̶, i̶n̶t̶e̶g̶r̶a̶t̶o̶r̶x̶x̶,
                i̶p̶i̶, l̶i̶b̶e̶f̶p̶, m̶d̶i̶, m̶p̶2̶d̶, m̶r̶c̶c̶, ooo,
                o̶p̶e̶n̶f̶e̶r̶m̶i̶o̶n̶p̶s̶i̶4̶, pcmsolver, p̶s̶i̶4̶f̶o̶c̶k̶c̶i̶, p̶s̶i̶x̶a̶s̶,
                r̶e̶s̶p̶, s̶i̶m̶i̶n̶t̶, s̶n̶s̶m̶p̶2̶, v̶2̶r̶d̶m̶_̶c̶a̶s̶s̶c̶f̶
Molecule: Setting geometry variable dihedral to 120.000000

Scratch directory: /tmp/
gradient() will perform analytic gradient computation.
   => Libint2 <=

    Primary   basis highest AM E, G, H:  7, 6, 3
    Auxiliary basis highest AM E, G, H:  7, 7, 4
    Onebody   basis highest AM E, G, H:  -, -, -
    Solid Harmonics ordering:            Gaussian

*** tstart() called on PC001.IRVING.UPEI.CA
*** at Mon Mar 30 15:17:27 2026

   => Loading Basis Set <=

    Name: STO-3G
    Role: ORBITAL
    Keyword: BASIS
    atoms 1-2, 6, 9       entry C          line    61 file /opt/anaconda3/envs/p4dev/share/psi4/basis/sto-3g.gbs 
    atoms 3-5, 7-8, 10-14 entry H          line    19 file /opt/anaconda3/envs/p4dev/share/psi4/basis/sto-3g.gbs 


         ---------------------------------------------------------
                                   SCF
               by Justin Turney, Rob Parrish, Andy Simmonett
                          and Daniel G. A. Smith
                              RHF Reference
                        4 Threads,    953 MiB Core
         ---------------------------------------------------------

  ==> Geometry <==

    Molecular point group: c1
    Full point group: C1

    Geometry (in Angstrom), charge = 0, multiplicity = 1:

       Center              X                  Y                   Z               Mass       
    ------------   -----------------  -----------------  -----------------  -----------------
         C            0.825129905707    -0.167001399775    -1.688868539216    12.000000000000
         C            0.825129905707    -0.167001399775    -0.147248969526    12.000000000000
         H            0.825129905707     0.848702259381    -2.073324475752     1.007825032230
         H            1.710285376629    -0.671638951088    -2.064587250801     1.007825032230
         H           -0.046198891055    -0.679730753068    -2.082933956589     1.007825032230
         C           -0.356077566915     0.611406232049     0.479377511969    12.000000000000
         H            0.809273731311    -1.194265536070     0.212769034855     1.007825032230
         H            1.754427850330     0.279385798283     0.202378218589     1.007825032230
         C           -1.266101708528    -0.250798499795     1.376623356467    12.000000000000
         H            0.048314737585     1.428626807064     1.074115138439     1.007825032230
         H           -0.952311231109     1.058744573395    -0.314051609602     1.007825032230
         H           -2.033713337143     0.365205700620     1.835573169765     1.007825032230
         H           -1.758770856656    -1.030389377034     0.804864680437     1.007825032230
         H           -0.690787416714    -0.721420897274     2.168449293181     1.007825032230

  Running in c1 symmetry.

  Rotational constants: A =      0.60788  B =      0.12369  C =      0.12344 [cm^-1]
  Rotational constants: A =  18223.72242  B =   3708.26490  C =   3700.64360 [MHz]
  Nuclear repulsion =  130.518400949319073

  Charge       = 0
  Multiplicity = 1
  Electrons    = 34
  Nalpha       = 17
  Nbeta        = 17

  ==> Algorithm <==

  SCF Algorithm Type is DIRECT.
  DIIS enabled.
  MOM disabled.
  Fractional occupation disabled.
  Guess Type is SAD.
  Energy threshold   = 1.00e-08
  Density threshold  = 1.00e-08
  Integral threshold = 1.00e-08

  ==> Primary Basis <==

  -AO BASIS SET INFORMATION:
    Name                   = STO-3G
    Blend                  = STO-3G
    Total number of shells = 22
    Number of primitives   = 66
    Number of AO           = 30
    Number of SO           = 30
    Maximum AM             = 1
    Spherical Harmonics    = TRUE

  -Contraction Scheme:
    Atom   Type   All Primitives // Shells:
   ------ ------ --------------------------
       1     C     6s 3p // 2s 1p 
       2     C     6s 3p // 2s 1p 
       3     H     3s // 1s 
       4     H     3s // 1s 
       5     H     3s // 1s 
       6     C     6s 3p // 2s 1p 
       7     H     3s // 1s 
       8     H     3s // 1s 
       9     C     6s 3p // 2s 1p 
      10     H     3s // 1s 
      11     H     3s // 1s 
      12     H     3s // 1s 
      13     H     3s // 1s 
      14     H     3s // 1s 

   => Loading Basis Set <=

    Name: (STO-3G AUX)
    Role: JKFIT
    Keyword: DF_BASIS_SCF
    atoms 1-2, 6, 9       entry C          line   198 file /opt/anaconda3/envs/p4dev/share/psi4/basis/def2-universal-jkfit.gbs 
    atoms 3-5, 7-8, 10-14 entry H          line    18 file /opt/anaconda3/envs/p4dev/share/psi4/basis/def2-universal-jkfit.gbs 

  Starting with a DF guess...

  ==> Integral Setup <==

  DFHelper Memory: AOs need 0.005 GiB; user supplied 0.698 GiB. 
  SCF_SUBTYPE=INCORE selected. In-core MEM_DF algorithm will be used.
  Using in-core AOs.

  ==> MemDFJK: Density-Fitted J/K Matrices <==

    J tasked:                   Yes
    K tasked:                   Yes
    wK tasked:                   No
    OpenMP threads:               4
    Memory [MiB]:               715
    Algorithm:                 Core
    Schwarz Cutoff:           1E-08
    Mask sparsity (%):       0.6667
    Fitting Condition:        1E-10

   => Auxiliary Basis Set <=

  -AO BASIS SET INFORMATION:
    Name                   = (STO-3G AUX)
    Blend                  = DEF2-UNIVERSAL-JKFIT
    Total number of shells = 160
    Number of primitives   = 212
    Number of AO           = 556
    Number of SO           = 480
    Maximum AM             = 4
    Spherical Harmonics    = TRUE

  -Contraction Scheme:
    Atom   Type   All Primitives // Shells:
   ------ ------ --------------------------
       1     C     14s 10p 6d 2f 1g // 10s 8p 5d 1f 1g 
       2     C     14s 10p 6d 2f 1g // 10s 8p 5d 1f 1g 
       3     H     4s 2p 2d // 2s 2p 2d 
       4     H     4s 2p 2d // 2s 2p 2d 
       5     H     4s 2p 2d // 2s 2p 2d 
       6     C     14s 10p 6d 2f 1g // 10s 8p 5d 1f 1g 
       7     H     4s 2p 2d // 2s 2p 2d 
       8     H     4s 2p 2d // 2s 2p 2d 
       9     C     14s 10p 6d 2f 1g // 10s 8p 5d 1f 1g 
      10     H     4s 2p 2d // 2s 2p 2d 
      11     H     4s 2p 2d // 2s 2p 2d 
      12     H     4s 2p 2d // 2s 2p 2d 
      13     H     4s 2p 2d // 2s 2p 2d 
      14     H     4s 2p 2d // 2s 2p 2d 

  Minimum eigenvalue in the overlap matrix is 2.0029483095E-01.
  Reciprocal condition number of the overlap matrix is 7.7359779637E-02.
    Using symmetric orthogonalization.

  ==> Pre-Iterations <==

  SCF Guess: Superposition of Atomic Densities via on-the-fly atomic UHF (no occupation information).

   -------------------------
    Irrep   Nso     Nmo    
   -------------------------
     A         30      30 
   -------------------------
    Total      30      30
   -------------------------

  ==> Iterations <==

                           Total Energy        Delta E     RMS |[F,P]|

   @DF-RHF iter SAD:  -140.31914475149949   -1.40319e+02   0.00000e+00 
   @DF-RHF iter   1:  -153.61513967504902   -1.32960e+01   5.18249e-02 DIIS/ADIIS
   @DF-RHF iter   2:  -155.40273599602622   -1.78760e+00   1.00435e-02 DIIS/ADIIS
   @DF-RHF iter   3:  -155.46097057757038   -5.82346e-02   6.40255e-04 DIIS/ADIIS
   @DF-RHF iter   4:  -155.46131338298059   -3.42805e-04   1.39237e-04 DIIS/ADIIS
   @DF-RHF iter   5:  -155.46132919935636   -1.58164e-05   2.50490e-05 DIIS
   @DF-RHF iter   6:  -155.46132986316650   -6.63810e-07   2.90601e-06 DIIS
   @DF-RHF iter   7:  -155.46132987060801   -7.44151e-09   2.52230e-07 DIIS
   @DF-RHF iter   8:  -155.46132987066431   -5.63034e-11   2.72907e-08 DIIS
   @DF-RHF iter   9:  -155.46132987066483   -5.11591e-13   3.58089e-09 DIIS

  DF guess converged.

  ==> DirectJK: Integral-Direct J/K Matrices <==

    J tasked:                  Yes
    K tasked:                  Yes
    wK tasked:                  No
    Integrals threads:           4
    Screening Type:           CSAM
    Screening Cutoff:        1E-08
    Incremental Fock:           No

   @RHF iter  10:  -155.46081540965500   -1.55461e+02   4.37484e-06 DIIS
   @RHF iter  11:  -155.46081541805108   -8.39609e-09   7.32421e-07 DIIS
   @RHF iter  12:  -155.46081541831978   -2.68699e-10   1.20085e-07 DIIS
   @RHF iter  13:  -155.46081541833138   -1.15961e-11   2.06086e-08 DIIS
   @RHF iter  14:  -155.46081541833180   -4.26326e-13   1.11445e-09 DIIS
  Energy and wave function converged.


  ==> Post-Iterations <==

    Orbital Energies [Eh]
    ---------------------

    Doubly Occupied:                                                      

       1A    -11.036829     2A    -11.036491     3A    -11.031972  
       4A    -11.031969     5A     -1.026102     6A     -0.941949  
       7A     -0.831720     8A     -0.755007     9A     -0.599559  
      10A     -0.571019    11A     -0.551568    12A     -0.521964  
      13A     -0.481980    14A     -0.480137    15A     -0.430394  
      16A     -0.422639    17A     -0.415478  

    Virtual:                                                              

      18A      0.597694    19A      0.612130    20A      0.638872  
      21A      0.678592    22A      0.691181    23A      0.712547  
      24A      0.745457    25A      0.754382    26A      0.778725  
      27A      0.790211    28A      0.792167    29A      0.823448  
      30A      0.850817  

    Final Occupation by Irrep:
              A 
    DOCC [    17 ]
    NA   [    17 ]
    NB   [    17 ]

  @RHF Final Energy:  -155.46081541833180

   => Energetics <=

    Nuclear Repulsion Energy =            130.5184009493190729
    One-Electron Energy =                -467.6248776199134909
    Two-Electron Energy =                 181.6456612522626131
    Total Energy =                       -155.4608154183318049

Computation Completed


Properties will be evaluated at   0.000000,   0.000000,   0.000000 [a0]

Properties computed using the SCF density matrix


 Multipole Moments:

 ------------------------------------------------------------------------------------
     Multipole            Electronic (a.u.)      Nuclear  (a.u.)        Total (a.u.)
 ------------------------------------------------------------------------------------

 L = 1.  Multiply by 2.5417464519 to convert [e a0] to [Debye]
 Dipole X            :          0.3195826           -0.3134430            0.0061395
 Dipole Y            :          0.3027890           -0.2969719            0.0058170
 Dipole Z            :          0.2262912           -0.2219438            0.0043474
 Magnitude           :                                                    0.0095096

 ------------------------------------------------------------------------------------

*** tstop() called on PC001.IRVING.UPEI.CA at Mon Mar 30 15:17:28 2026
Module time:
	user time   =       2.54 seconds =       0.04 minutes
	system time =       0.07 seconds =       0.00 minutes
	total time  =          1 seconds =       0.02 minutes
Total time:
	user time   =      30.94 seconds =       0.52 minutes
	system time =       0.78 seconds =       0.01 minutes
	total time  =         33 seconds =       0.55 minutes

*** tstart() called on PC001.IRVING.UPEI.CA
*** at Mon Mar 30 15:17:28 2026


         ------------------------------------------------------------
                                   SCF GRAD                          
                          Rob Parrish, Justin Turney,                
                       Andy Simmonett, and Alex Sokolov              
         ------------------------------------------------------------

  ==> Geometry <==

    Molecular point group: c1
    Full point group: C1

    Geometry (in Angstrom), charge = 0, multiplicity = 1:

       Center              X                  Y                   Z               Mass       
    ------------   -----------------  -----------------  -----------------  -----------------
         C            0.825129905707    -0.167001399775    -1.688868539216    12.000000000000
         C            0.825129905707    -0.167001399775    -0.147248969526    12.000000000000
         H            0.825129905707     0.848702259381    -2.073324475752     1.007825032230
         H            1.710285376629    -0.671638951088    -2.064587250801     1.007825032230
         H           -0.046198891055    -0.679730753068    -2.082933956589     1.007825032230
         C           -0.356077566915     0.611406232049     0.479377511969    12.000000000000
         H            0.809273731311    -1.194265536070     0.212769034855     1.007825032230
         H            1.754427850330     0.279385798283     0.202378218589     1.007825032230
         C           -1.266101708528    -0.250798499795     1.376623356467    12.000000000000
         H            0.048314737585     1.428626807064     1.074115138439     1.007825032230
         H           -0.952311231109     1.058744573395    -0.314051609602     1.007825032230
         H           -2.033713337143     0.365205700620     1.835573169765     1.007825032230
         H           -1.758770856656    -1.030389377034     0.804864680437     1.007825032230
         H           -0.690787416714    -0.721420897274     2.168449293181     1.007825032230

  Nuclear repulsion =  130.518400949319073

  ==> Basis Set <==

  -AO BASIS SET INFORMATION:
    Name                   = STO-3G
    Blend                  = STO-3G
    Total number of shells = 22
    Number of primitives   = 66
    Number of AO           = 30
    Number of SO           = 30
    Maximum AM             = 1
    Spherical Harmonics    = TRUE

  -Contraction Scheme:
    Atom   Type   All Primitives // Shells:
   ------ ------ --------------------------
       1     C     6s 3p // 2s 1p 
       2     C     6s 3p // 2s 1p 
       3     H     3s // 1s 
       4     H     3s // 1s 
       5     H     3s // 1s 
       6     C     6s 3p // 2s 1p 
       7     H     3s // 1s 
       8     H     3s // 1s 
       9     C     6s 3p // 2s 1p 
      10     H     3s // 1s 
      11     H     3s // 1s 
      12     H     3s // 1s 
      13     H     3s // 1s 
      14     H     3s // 1s 

  ==> DirectJKGrad: Integral-Direct SCF Gradients <==

    Gradient:                    1
    J tasked:                  Yes
    K tasked:                  Yes
    wK tasked:                  No
    Integrals threads:           4
    Schwarz Cutoff:          1E-08


  -Nuclear Gradient:
     Atom            X                  Y                   Z
    ------   -----------------  -----------------  -----------------
       1       -1.315859045689     0.502109642565     5.727436717158
       2       -4.064325601524     1.702999077723    -1.173570423941
       3       -0.177067946234    -1.730699153612     1.235964353008
       4       -1.635016450904     0.907160542086     1.096530374146
       5        1.358422877676     0.978456480070     1.280661427558
       6        1.328404329223    -4.295154182794    -0.763692007071
       7       -0.438631378405     2.094180700180    -0.671431512042
       8       -2.075700166395    -0.696042640797    -0.734387993403
       9        3.996397464272     2.037574024758    -3.829389441767
      10       -0.638022131797    -1.875079132798    -1.187155230106
      11        1.330713638595    -1.248975704231     1.303100810580
      12        1.635773496205    -0.906442735365    -1.095995185608
      13        1.302867472927     1.542984452457     0.603754269865
      14       -0.607956557950     0.986928629758    -1.791826158376


  -Core Hamiltonian Gradient:
     Atom            X                  Y                   Z
    ------   -----------------  -----------------  -----------------
       1        2.740750875784    -1.039143929725   -10.670351176525
       2        7.262310448623    -2.730021086355     1.634215446398
       3        0.341896941004     5.035369651110    -3.042307682162
       4        4.540712317155    -2.539494712357    -2.719691958822
       5       -4.082467333284    -2.764870010277    -3.173341957115
       6       -2.399621517757     7.337190817003     1.808979613116
       7        0.789711639139    -5.940782079340     2.023316593985
       8        5.638636268878     2.158562593527     2.076747917163
       9       -7.575407139311    -3.541470857009     7.247003536290
      10        1.992957145009     5.072009278767     3.327062193440
      11       -3.629349400512     3.250360554497    -4.034020338595
      12       -4.366559708226     2.704494125409     2.843006969354
      13       -3.378033208143    -4.303584614945    -2.109313253937
      14        2.124462671642    -2.698619730306     4.788694097411


  -Overlap Gradient:
     Atom            X                  Y                   Z
    ------   -----------------  -----------------  -----------------
       1        0.001493052733    -0.000016492849    -0.046255733764
       2        0.042920268108    -0.026579422002     0.028751919007
       3        0.000134730475    -0.162497426384     0.062924550413
       4       -0.141413493113     0.080543371870     0.061567972129
       5        0.139148794927     0.082191680649     0.065232289987
       6       -0.011160790702     0.056669927862    -0.006263616769
       7        0.002563420797     0.163203892817    -0.059000536624
       8       -0.147364885307    -0.070854646178    -0.056737101021
       9       -0.027566437590    -0.024686570255     0.027793734041
      10       -0.064945002254    -0.130298897628    -0.093596174114
      11        0.093652977569    -0.072043442616     0.127129876088
      12        0.123483471099    -0.097531119634    -0.074263911390
      13        0.080281320537     0.125707443822     0.090142458684
      14       -0.091227427281     0.076191700527    -0.127425726667


  -Coulomb Gradient:
     Atom            X                  Y                   Z
    ------   -----------------  -----------------  -----------------
       1       -1.424913359102     0.537230373004     4.907619903349
       2       -3.168044808313     1.009441011188    -0.437689652967
       3       -0.164939188376    -3.447621109001     1.861934384025
       4       -3.030460877780     1.703529246689     1.677419936276
       5        2.847524669563     1.858923614418     1.949688454480
       6        1.065901242547    -3.001125478621    -1.050807113696
       7       -0.350720557170     3.989652144205    -1.402150697027
       8       -3.693275392892    -1.523093593048    -1.391436162711
       9        3.558333515378     1.484090812293    -3.396975101994
      10       -1.410069252739    -3.312083775973    -2.222161557630
      11        2.381893517336    -2.065212099098     2.840393339753
      12        2.839801829345    -1.884168251893    -1.812422113677
      13        2.145551302751     2.871768269263     1.585824182934
      14       -1.596582640549     1.778668836574    -3.109237801116


  -Exchange Gradient:
     Atom            X                  Y                   Z
    ------   -----------------  -----------------  -----------------
       1       -0.002627591607     0.000009967160     0.081221958674
       2       -0.077792862734     0.048194643713    -0.052646784883
       3       -0.000057870940     0.305461425249    -0.118581441653
       4        0.266016795828    -0.151645918277    -0.115521058612
       5       -0.261187654358    -0.154733304888    -0.122831324243
       6        0.019929120426    -0.103017534994     0.011674591904
       7       -0.004681066984    -0.306392750722     0.110950675888
       8        0.276999807059     0.133900328647     0.107190056380
       9        0.048390858983     0.043347988556    -0.048818045259
      10        0.122961581582     0.245044147765     0.176016292110
      11       -0.175732948245     0.135459048308    -0.238699074334
      12       -0.232218831990     0.183667740870     0.139452801196
      13       -0.151280501152    -0.236059776224    -0.169230372447
      14        0.171281164130    -0.143236005163     0.239821725280


  -Total Gradient:
     Atom            X                  Y                   Z
    ------   -----------------  -----------------  -----------------
       1       -0.001156067881     0.000189560155    -0.000328331107
       2       -0.004932555840     0.004034224267    -0.000939496387
       3       -0.000033334071     0.000013387362    -0.000065836370
       4       -0.000161708813     0.000092530012     0.000305265117
       5        0.001441354524    -0.000031540027    -0.000591109332
       6        0.003452383738    -0.005436451544    -0.000108532515
       7       -0.001757942622    -0.000138092860     0.001684524180
       8       -0.000704368657     0.002472042151     0.001376716407
       9        0.000148261733    -0.001144601658    -0.000385318689
      10        0.002882339801    -0.000408379866     0.000165523700
      11        0.001177784743    -0.000411643140    -0.002095386509
      12        0.000280256433     0.000019759386    -0.000221440125
      13       -0.000613613080     0.000815774373     0.001177285099
      14       -0.000022790008    -0.000066568610     0.000026136531


*** tstop() called on PC001.IRVING.UPEI.CA at Mon Mar 30 15:17:28 2026
Module time:
	user time   =       0.35 seconds =       0.01 minutes
	system time =       0.00 seconds =       0.00 minutes
	total time  =          0 seconds =       0.00 minutes
Total time:
	user time   =      31.30 seconds =       0.52 minutes
	system time =       0.78 seconds =       0.01 minutes
	total time  =         33 seconds =       0.55 minutes

    			-----------------------------------------

    			 OPTKING 3.0: for geometry optimizations 

    			     By R.A. King, Bethel University     

    			        with contributions from          

    			    A.V. Copan, J. Cayton, A. Heide      

    			-----------------------------------------

    
	                            ===> Fragment 1 <== 

	 Z (Atomic Numbers)          Masses                          Geom                  
	       6.000000            12.000000          1.55926954 -0.31558691 -3.19149900   
	       6.000000            12.000000          1.55926954 -0.31558691 -0.27826022   
	       1.000000             1.007825          1.55926954  1.60381483 -3.91801543   
	       1.000000             1.007825          3.23197096 -1.26921367 -3.90150447   
	       1.000000             1.007825         -0.08730325 -1.28450496 -3.93617472   
	       6.000000            12.000000         -0.67288908  1.15539033  0.90589221   
	       1.000000             1.007825          1.52930571 -2.25683478  0.40207520   
	       1.000000             1.007825          3.31538814  0.52796264  0.38243941   
	       6.000000            12.000000         -2.39258548 -0.47394048  2.60144112   
	       1.000000             1.007825          0.09130162  2.69971340  2.02978344   
	       1.000000             1.007825         -1.79960741  2.00073728 -0.59347153   
	       1.000000             1.007825         -3.84316122  0.69013875  3.46873057   
	       1.000000             1.007825         -3.32359524 -1.94715373  1.52097381   
	       1.000000             1.007825         -1.30539903 -1.36328792  4.09777528   

	 - Coordinate -           - BOHR/RAD -       - ANG/DEG -
	 R(1,2)           =         2.913239           1.541620
	 R(1,3)           =         2.052299           1.086030
	 R(1,4)           =         2.052180           1.085967
	 R(1,5)           =         2.050499           1.085077
	 R(2,6)           =         2.923786           1.547201
	 R(2,7)           =         2.057231           1.088640
	 R(2,8)           =         2.057195           1.088621
	 R(6,9)           =         2.913239           1.541620
	 R(6,10)          =         2.057195           1.088621
	 R(6,11)          =         2.057230           1.088639
	 R(9,12)          =         2.052180           1.085967
	 R(9,13)          =         2.050499           1.085077
	 R(9,14)          =         2.052299           1.086030
	 B(1,2,6)         =         1.987782         113.891539
	 B(1,2,7)         =         1.907846         109.311542
	 B(1,2,8)         =         1.897756         108.733409
	 B(2,1,3)         =         1.932642         110.732251
	 B(2,1,4)         =         1.924075         110.241401
	 B(2,1,5)         =         1.942462         111.294885
	 B(2,6,9)         =         1.987782         113.891510
	 B(2,6,10)        =         1.891615         108.381553
	 B(2,6,11)        =         1.906767         109.249680
	 B(3,1,4)         =         1.888223         108.187195
	 B(3,1,5)         =         1.889533         108.262282
	 B(4,1,5)         =         1.885249         108.016800
	 B(6,2,7)         =         1.906767         109.249696
	 B(6,2,8)         =         1.891614         108.381517
	 B(6,9,12)        =         1.924075         110.241360
	 B(6,9,13)        =         1.942463         111.294910
	 B(6,9,14)        =         1.932643         110.732276
	 B(7,2,8)         =         1.868320         107.046835
	 B(9,6,10)        =         1.897756         108.733416
	 B(9,6,11)        =         1.907847         109.311556
	 B(10,6,11)       =         1.868320         107.046823
	 B(12,9,13)       =         1.885249         108.016802
	 B(12,9,14)       =         1.888223         108.187197
	 B(13,9,14)       =         1.889533         108.262268
	*D(1,2,6,9)       =         2.094395         120.000000
	 D(1,2,6,10)      =        -2.074248        -118.845668
	 D(1,2,6,11)      =        -0.044231          -2.534222
	 D(2,6,9,12)      =         3.077073         176.303297
	 D(2,6,9,13)      =        -1.114553         -63.859169
	 D(2,6,9,14)      =         0.988124          56.615332
	 D(3,1,2,6)       =         0.988125          56.615392
	 D(3,1,2,7)       =         3.126159         179.115690
	 D(3,1,2,8)       =        -1.122993         -64.342752
	 D(4,1,2,6)       =         3.077074         176.303365
	 D(4,1,2,7)       =        -1.068078         -61.196336
	 D(4,1,2,8)       =         0.965956          55.345222
	 D(5,1,2,6)       =        -1.114551         -63.859093
	 D(5,1,2,7)       =         1.023482          58.641206
	 D(5,1,2,8)       =         3.057516         175.182764
	 D(7,2,6,9)       =        -0.044231          -2.534236
	 D(7,2,6,10)      =         2.070311         118.620096
	 D(7,2,6,11)      =        -2.182856        -125.068458
	 D(8,2,6,9)       =        -2.074248        -118.845685
	 D(8,2,6,10)      =         0.040293           2.308647
	 D(8,2,6,11)      =         2.070311         118.620094
	 D(10,6,9,12)     =         0.965955          55.345121
	 D(10,6,9,13)     =         3.057514         175.182655
	 D(10,6,9,14)     =        -1.122994         -64.342845
	 D(11,6,9,12)     =        -1.068079         -61.196435
	 D(11,6,9,13)     =         1.023480          58.641099
	 D(11,6,9,14)     =         3.126157         179.115600


	        --- Internal Coordinate Step in ANG or DEG, aJ/ANG or AJ/DEG ---
	-------------------------------------------------------------------------------
	           Coordinate      Previous         Force          Change          New 
	           ----------      --------        ------          ------        ------
	               R(1,2)       1.54162       -0.00560       -0.00126       1.54036
	               R(1,3)       1.08603       -0.00030       -0.00006       1.08597
	               R(1,4)       1.08597        0.00231        0.00042       1.08639
	               R(1,5)       1.08508        0.00764        0.00139       1.08647
	               R(2,6)       1.54720        0.07825        0.01795       1.56515
	               R(2,7)       1.08864       -0.00587       -0.00109       1.08755
	               R(2,8)       1.08862       -0.00704       -0.00128       1.08734
	               R(6,9)       1.54162       -0.00560       -0.00126       1.54036
	              R(6,10)       1.08862       -0.00704       -0.00128       1.08734
	              R(6,11)       1.08864       -0.00587       -0.00109       1.08755
	              R(9,12)       1.08597        0.00231        0.00042       1.08639
	              R(9,13)       1.08508        0.00764        0.00139       1.08647
	              R(9,14)       1.08603       -0.00030       -0.00006       1.08597
	             B(1,2,6)     113.89154       -0.00025       -0.77394     113.11760
	             B(1,2,7)     109.31154       -0.00000       -0.87212     108.43942
	             B(1,2,8)     108.73341       -0.00002       -0.20995     108.52346
	             B(2,1,3)     110.73225        0.00000       -0.04641     110.68584
	             B(2,1,4)     110.24140        0.00005        0.37025     110.61165
	             B(2,1,5)     111.29488       -0.00012       -0.61361     110.68128
	             B(2,6,9)     113.89151       -0.00025       -0.77390     113.11761
	            B(2,6,10)     108.38155        0.00022        1.71666     110.09821
	            B(2,6,11)     109.24968        0.00016        0.73632     109.98600
	             B(3,1,4)     108.18720       -0.00001        0.08439     108.27159
	             B(3,1,5)     108.26228        0.00003       -0.09150     108.17078
	             B(4,1,5)     108.01680        0.00005        0.31231     108.32911
	             B(6,2,7)     109.24970        0.00016        0.73629     109.98598
	             B(6,2,8)     108.38152        0.00022        1.71671     110.09823
	            B(6,9,12)     110.24136        0.00005        0.37031     110.61167
	            B(6,9,13)     111.29491       -0.00012       -0.61364     110.68127
	            B(6,9,14)     110.73228        0.00000       -0.04645     110.68583
	             B(7,2,8)     107.04683       -0.00009       -0.60873     106.43811
	            B(9,6,10)     108.73342       -0.00002       -0.20997     108.52345
	            B(9,6,11)     109.31156       -0.00000       -0.87214     108.43941
	           B(10,6,11)     107.04682       -0.00009       -0.60871     106.43811
	           B(12,9,13)     108.01680        0.00005        0.31231     108.32912
	           B(12,9,14)     108.18720       -0.00001        0.08439     108.27159
	           B(13,9,14)     108.26227        0.00003       -0.09149     108.17078
	          *D(1,2,6,9)     120.00000        0.00000        0.00000     120.00000
	          D(1,2,6,10)    -118.84567       -0.00004        0.44913    -118.39653
	          D(1,2,6,11)      -2.53422        0.00006        1.12024      -1.41398
	          D(2,6,9,12)     176.30330        0.00004        3.42303     179.72633
	          D(2,6,9,13)     -63.85917        0.00006        3.65848     -60.20069
	          D(2,6,9,14)      56.61533        0.00001        3.10709      59.72242
	           D(3,1,2,6)      56.61539        0.00001        3.10708      59.72247
	           D(3,1,2,7)     179.11569        0.00004        2.88841     182.00410
	           D(3,1,2,8)     -64.34275       -0.00008        1.58013     -62.76262
	           D(4,1,2,6)     176.30336        0.00004        3.42301     179.72637
	           D(4,1,2,7)     -61.19634        0.00006        3.20434     -57.99199
	           D(4,1,2,8)      55.34522       -0.00006        1.89606      57.24128
	           D(5,1,2,6)     -63.85909        0.00006        3.65844     -60.20066
	           D(5,1,2,7)      58.64121        0.00008        3.43977      62.08098
	           D(5,1,2,8)     175.18276       -0.00004        2.13149     177.31426
	           D(7,2,6,9)      -2.53424        0.00006        1.12027      -1.41397
	          D(7,2,6,10)     118.62010        0.00003        1.56940     120.18950
	          D(7,2,6,11)    -125.06846        0.00013        2.24051    -122.82795
	           D(8,2,6,9)    -118.84568       -0.00004        0.44917    -118.39652
	          D(8,2,6,10)       2.30865       -0.00008        0.89830       3.20695
	          D(8,2,6,11)     118.62009        0.00003        1.56941     120.18950
	         D(10,6,9,12)      55.34512       -0.00006        1.89614      57.24126
	         D(10,6,9,13)     175.18265       -0.00004        2.13159     177.31424
	         D(10,6,9,14)     -64.34284       -0.00008        1.58020     -62.76265
	         D(11,6,9,12)     -61.19643        0.00006        3.20442     -57.99202
	         D(11,6,9,13)      58.64110        0.00008        3.43987      62.08097
	         D(11,6,9,14)     179.11560        0.00004        2.88848     182.00408
	-------------------------------------------------------------------------------

	                                 ==> Convergence Check <==                                  
    
	Measures of convergence in internal coordinates in au.
    
	Criteria marked as inactive (o), active & met (*), and active & unmet ( ).

	----------------------------------------------------------------------------------------------~
	   Step    Total Energy     Delta E     Max Force     RMS Force      Max Disp      RMS Disp   ~
	----------------------------------------------------------------------------------------------~
	  Convergence Criteria     1.00e-06 *    3.00e-04 *             o    1.20e-03 *             o~
	----------------------------------------------------------------------------------------------~
	     1    -155.46081542   -1.55e+02      9.50e-03      1.62e-03 o    6.39e-02      2.94e-02 o  ~
	----------------------------------------------------------------------------------------------

Next Geometry in Ang 
	Fragment 1 (Ang)

	    C   0.8240766323  -0.1630385513  -1.6847663758
	    C   0.8366868196  -0.1695164564  -0.1444724082
	    H   0.8783597746   0.8529012563  -2.0645659658
	    H   1.6713465286  -0.7188385470  -2.0764991360
	    H  -0.0872429046  -0.6178927399  -2.0629416472
	    C  -0.3583473009   0.6227199187   0.4831768463
	    H   0.8172456153  -1.2024320448   0.1953525153
	    H   1.7813771955   0.2483605411   0.1950055287
	    C  -1.2603752224  -0.2503330245   1.3758304666
	    H   0.0149752501   1.4535960620   1.0769625044
	    H  -0.9703686970   1.0573554622  -0.3037763621
	    H  -2.0715499969   0.3396650683   1.7931220763
	    H  -1.6912985865  -1.0671883896   0.8035853062
	    H  -0.6911547028  -0.6755339982   2.1971222537


    Structure for next step:
    Molecular point group: c1
    Full point group: C1

    Geometry (in Angstrom), charge = 0, multiplicity = 1:

    C       
    C             1    1.540359
    H             1    1.085969      2  110.685842
    H             1    1.086386      2  110.611650      3  120.003903
    H             1    1.086468      2  110.681279      3 -119.923125
    C             2    1.565148      1  113.117595      3   59.722468
    H             2    1.087554      1  108.439419      6  122.281634
    H             2    1.087339      1  108.523459      6 -122.485087
    C             6    1.540359      2  113.117609      1    dihedral
    H             6    1.087339      2  110.098212      9  121.603467
    H             6    1.087554      2  109.985997      9 -121.413982
    H             9    1.086386      6  110.611673     10   57.241261
    H             9    1.086468      6  110.681269     12  120.072982
    H             9    1.085969      6  110.685828     12 -120.003908

    dihedral  =  120.0000000000


Scratch directory: /tmp/
gradient() will perform analytic gradient computation.
   => Libint2 <=

    Primary   basis highest AM E, G, H:  7, 6, 3
    Auxiliary basis highest AM E, G, H:  7, 7, 4
    Onebody   basis highest AM E, G, H:  -, -, -
    Solid Harmonics ordering:            Gaussian

*** tstart() called on PC001.IRVING.UPEI.CA
*** at Mon Mar 30 15:17:28 2026

   => Loading Basis Set <=

    Name: STO-3G
    Role: ORBITAL
    Keyword: BASIS
    atoms 1-2, 6, 9       entry C          line    61 file /opt/anaconda3/envs/p4dev/share/psi4/basis/sto-3g.gbs 
    atoms 3-5, 7-8, 10-14 entry H          line    19 file /opt/anaconda3/envs/p4dev/share/psi4/basis/sto-3g.gbs 


         ---------------------------------------------------------
                                   SCF
               by Justin Turney, Rob Parrish, Andy Simmonett
                          and Daniel G. A. Smith
                              RHF Reference
                        4 Threads,    953 MiB Core
         ---------------------------------------------------------

  ==> Geometry <==

    Molecular point group: c1
    Full point group: C1

    Geometry (in Angstrom), charge = 0, multiplicity = 1:

       Center              X                  Y                   Z               Mass       
    ------------   -----------------  -----------------  -----------------  -----------------
         C            0.843631363017    -0.125148857384    -1.679144985683    12.000000000000
         C            0.843631363017    -0.125148857384    -0.138785778652    12.000000000000
         H            0.843631363017     0.890808928010    -2.062756584712     1.007825032230
         H            1.724209640071    -0.633630947172    -2.061587569908     1.007825032230
         H           -0.037325768438    -0.632194904968    -2.062851912212     1.007825032230
         C           -0.399483804895     0.600615203160     0.475722006249    12.000000000000
         H            0.879711601323    -1.156235195052     0.205209472068     1.007825032230
         H            1.760319143777     0.346720965580     0.206654149280     1.007825032230
         C           -1.258230045716    -0.318684959077     1.364624927952    12.000000000000
         H           -0.078700034310     1.453476544139     1.069044520635     1.007825032230
         H           -1.028439115608     0.997020275183    -0.318036038237     1.007825032230
         H           -2.104918896798     0.226075965256     1.772776954247     1.007825032230
         H           -1.637493807513    -1.160723247255     0.792311484831     1.007825032230
         H           -0.672827522920    -0.707961491039     2.192330029713     1.007825032230

  Running in c1 symmetry.

  Rotational constants: A =      0.60056  B =      0.12370  C =      0.12368 [cm^-1]
  Rotational constants: A =  18004.34808  B =   3708.50607  C =   3707.80243 [MHz]
  Nuclear repulsion =  130.349300520502965

  Charge       = 0
  Multiplicity = 1
  Electrons    = 34
  Nalpha       = 17
  Nbeta        = 17

  ==> Algorithm <==

  SCF Algorithm Type is DIRECT.
  DIIS enabled.
  MOM disabled.
  Fractional occupation disabled.
  Guess Type is READ.
  Energy threshold   = 1.00e-08
  Density threshold  = 1.00e-08
  Integral threshold = 1.00e-08

  ==> Primary Basis <==

  -AO BASIS SET INFORMATION:
    Name                   = STO-3G
    Blend                  = STO-3G
    Total number of shells = 22
    Number of primitives   = 66
    Number of AO           = 30
    Number of SO           = 30
    Maximum AM             = 1
    Spherical Harmonics    = TRUE

  -Contraction Scheme:
    Atom   Type   All Primitives // Shells:
   ------ ------ --------------------------
       1     C     6s 3p // 2s 1p 
       2     C     6s 3p // 2s 1p 
       3     H     3s // 1s 
       4     H     3s // 1s 
       5     H     3s // 1s 
       6     C     6s 3p // 2s 1p 
       7     H     3s // 1s 
       8     H     3s // 1s 
       9     C     6s 3p // 2s 1p 
      10     H     3s // 1s 
      11     H     3s // 1s 
      12     H     3s // 1s 
      13     H     3s // 1s 
      14     H     3s // 1s 

   => Loading Basis Set <=

    Name: (STO-3G AUX)
    Role: JKFIT
    Keyword: DF_BASIS_SCF
    atoms 1-2, 6, 9       entry C          line   198 file /opt/anaconda3/envs/p4dev/share/psi4/basis/def2-universal-jkfit.gbs 
    atoms 3-5, 7-8, 10-14 entry H          line    18 file /opt/anaconda3/envs/p4dev/share/psi4/basis/def2-universal-jkfit.gbs 

   => Loading Basis Set <=

    Name: STO-3G
    Role: ORBITAL
    Keyword: BASIS
    atoms 1-2, 6, 9       entry C          line    61 file /opt/anaconda3/envs/p4dev/share/psi4/basis/sto-3g.gbs 
    atoms 3-5, 7-8, 10-14 entry H          line    19 file /opt/anaconda3/envs/p4dev/share/psi4/basis/sto-3g.gbs 

  Reading orbitals from file /tmp/butane_eclipsed_1.default.2575.180.npy, no projection.

  Starting with a DF guess...

  ==> Integral Setup <==

  DFHelper Memory: AOs need 0.005 GiB; user supplied 0.698 GiB. 
  SCF_SUBTYPE=INCORE selected. In-core MEM_DF algorithm will be used.
  Using in-core AOs.

  ==> MemDFJK: Density-Fitted J/K Matrices <==

    J tasked:                   Yes
    K tasked:                   Yes
    wK tasked:                   No
    OpenMP threads:               4
    Memory [MiB]:               715
    Algorithm:                 Core
    Schwarz Cutoff:           1E-08
    Mask sparsity (%):       0.6667
    Fitting Condition:        1E-10

   => Auxiliary Basis Set <=

  -AO BASIS SET INFORMATION:
    Name                   = (STO-3G AUX)
    Blend                  = DEF2-UNIVERSAL-JKFIT
    Total number of shells = 160
    Number of primitives   = 212
    Number of AO           = 556
    Number of SO           = 480
    Maximum AM             = 4
    Spherical Harmonics    = TRUE

  -Contraction Scheme:
    Atom   Type   All Primitives // Shells:
   ------ ------ --------------------------
       1     C     14s 10p 6d 2f 1g // 10s 8p 5d 1f 1g 
       2     C     14s 10p 6d 2f 1g // 10s 8p 5d 1f 1g 
       3     H     4s 2p 2d // 2s 2p 2d 
       4     H     4s 2p 2d // 2s 2p 2d 
       5     H     4s 2p 2d // 2s 2p 2d 
       6     C     14s 10p 6d 2f 1g // 10s 8p 5d 1f 1g 
       7     H     4s 2p 2d // 2s 2p 2d 
       8     H     4s 2p 2d // 2s 2p 2d 
       9     C     14s 10p 6d 2f 1g // 10s 8p 5d 1f 1g 
      10     H     4s 2p 2d // 2s 2p 2d 
      11     H     4s 2p 2d // 2s 2p 2d 
      12     H     4s 2p 2d // 2s 2p 2d 
      13     H     4s 2p 2d // 2s 2p 2d 
      14     H     4s 2p 2d // 2s 2p 2d 

  Minimum eigenvalue in the overlap matrix is 2.0159603858E-01.
  Reciprocal condition number of the overlap matrix is 7.8062469703E-02.
    Using symmetric orthogonalization.

  ==> Pre-Iterations <==

  SCF Guess: Orbitals guess was supplied from a previous computation.

   -------------------------------------------------------
    Irrep   Nso     Nmo     Nalpha   Nbeta   Ndocc  Nsocc
   -------------------------------------------------------
     A         30      30      17      17      17       0
   -------------------------------------------------------
    Total      30      30      17      17      17       0
   -------------------------------------------------------

  ==> Iterations <==

                           Total Energy        Delta E     RMS |[F,P]|

   @DF-RHF iter   0:  -155.44647992882889   -1.55446e+02   2.81725e-03 
   @DF-RHF iter   1:  -155.46117287540187   -1.46929e-02   6.69671e-04 DIIS/ADIIS
   @DF-RHF iter   2:  -155.46159073438579   -4.17859e-04   2.05823e-04 DIIS/ADIIS
   @DF-RHF iter   3:  -155.46163477312092   -4.40387e-05   1.94807e-05 DIIS
   @DF-RHF iter   4:  -155.46163504817173   -2.75051e-07   1.80695e-06 DIIS
   @DF-RHF iter   5:  -155.46163505144148   -3.26975e-09   3.31813e-07 DIIS
   @DF-RHF iter   6:  -155.46163505153632   -9.48432e-11   4.89254e-08 DIIS
   @DF-RHF iter   7:  -155.46163505153876   -2.44427e-12   6.33163e-09 DIIS

  DF guess converged.

  ==> DirectJK: Integral-Direct J/K Matrices <==

    J tasked:                  Yes
    K tasked:                  Yes
    wK tasked:                  No
    Integrals threads:           4
    Screening Type:           CSAM
    Screening Cutoff:        1E-08
    Incremental Fock:           No

   @RHF iter   8:  -155.46112074382492   -1.55461e+02   4.36004e-06 DIIS
   @RHF iter   9:  -155.46112075215274   -8.32782e-09   7.28251e-07 DIIS
   @RHF iter  10:  -155.46112075241908   -2.66340e-10   1.19541e-07 DIIS
   @RHF iter  11:  -155.46112075243065   -1.15676e-11   2.05238e-08 DIIS
   @RHF iter  12:  -155.46112075243099   -3.41061e-13   1.06650e-09 DIIS
  Energy and wave function converged.


  ==> Post-Iterations <==

    Orbital Energies [Eh]
    ---------------------

    Doubly Occupied:                                                      

       1A    -11.037652     2A    -11.037284     3A    -11.031677  
       4A    -11.031675     5A     -1.023948     6A     -0.942796  
       7A     -0.828207     8A     -0.757619     9A     -0.599036  
      10A     -0.569103    11A     -0.552514    12A     -0.522549  
      13A     -0.478858    14A     -0.478746    15A     -0.431431  
      16A     -0.425140    17A     -0.414353  

    Virtual:                                                              

      18A      0.597136    19A      0.613893    20A      0.633850  
      21A      0.683213    22A      0.691139    23A      0.712483  
      24A      0.743749    25A      0.749000    26A      0.773045  
      27A      0.789997    28A      0.793166    29A      0.821569  
      30A      0.846836  

    Final Occupation by Irrep:
              A 
    DOCC [    17 ]
    NA   [    17 ]
    NB   [    17 ]

  @RHF Final Energy:  -155.46112075243099

   => Energetics <=

    Nuclear Repulsion Energy =            130.3493005205029647
    One-Electron Energy =                -467.2956674067330596
    Two-Electron Energy =                 181.4852461337990803
    Total Energy =                       -155.4611207524309862

Computation Completed


Properties will be evaluated at   0.000000,   0.000000,   0.000000 [a0]

Properties computed using the SCF density matrix


 Multipole Moments:

 ------------------------------------------------------------------------------------
     Multipole            Electronic (a.u.)      Nuclear  (a.u.)        Total (a.u.)
 ------------------------------------------------------------------------------------

 L = 1.  Multiply by 2.5417464519 to convert [e a0] to [Debye]
 Dipole X            :          0.3347114           -0.3298331            0.0048783
 Dipole Y            :          0.3583137           -0.3530914            0.0052223
 Dipole Z            :          0.2539165           -0.2502158            0.0037007
 Magnitude           :                                                    0.0080477

 ------------------------------------------------------------------------------------

*** tstop() called on PC001.IRVING.UPEI.CA at Mon Mar 30 15:17:29 2026
Module time:
	user time   =       2.34 seconds =       0.04 minutes
	system time =       0.08 seconds =       0.00 minutes
	total time  =          1 seconds =       0.02 minutes
Total time:
	user time   =      34.48 seconds =       0.57 minutes
	system time =       0.90 seconds =       0.01 minutes
	total time  =         34 seconds =       0.57 minutes

*** tstart() called on PC001.IRVING.UPEI.CA
*** at Mon Mar 30 15:17:29 2026


         ------------------------------------------------------------
                                   SCF GRAD                          
                          Rob Parrish, Justin Turney,                
                       Andy Simmonett, and Alex Sokolov              
         ------------------------------------------------------------

  ==> Geometry <==

    Molecular point group: c1
    Full point group: C1

    Geometry (in Angstrom), charge = 0, multiplicity = 1:

       Center              X                  Y                   Z               Mass       
    ------------   -----------------  -----------------  -----------------  -----------------
         C            0.843631363017    -0.125148857384    -1.679144985683    12.000000000000
         C            0.843631363017    -0.125148857384    -0.138785778652    12.000000000000
         H            0.843631363017     0.890808928010    -2.062756584712     1.007825032230
         H            1.724209640071    -0.633630947172    -2.061587569908     1.007825032230
         H           -0.037325768438    -0.632194904968    -2.062851912212     1.007825032230
         C           -0.399483804895     0.600615203160     0.475722006249    12.000000000000
         H            0.879711601323    -1.156235195052     0.205209472068     1.007825032230
         H            1.760319143777     0.346720965580     0.206654149280     1.007825032230
         C           -1.258230045716    -0.318684959077     1.364624927952    12.000000000000
         H           -0.078700034310     1.453476544139     1.069044520635     1.007825032230
         H           -1.028439115608     0.997020275183    -0.318036038237     1.007825032230
         H           -2.104918896798     0.226075965256     1.772776954247     1.007825032230
         H           -1.637493807513    -1.160723247255     0.792311484831     1.007825032230
         H           -0.672827522920    -0.707961491039     2.192330029713     1.007825032230

  Nuclear repulsion =  130.349300520502965

  ==> Basis Set <==

  -AO BASIS SET INFORMATION:
    Name                   = STO-3G
    Blend                  = STO-3G
    Total number of shells = 22
    Number of primitives   = 66
    Number of AO           = 30
    Number of SO           = 30
    Maximum AM             = 1
    Spherical Harmonics    = TRUE

  -Contraction Scheme:
    Atom   Type   All Primitives // Shells:
   ------ ------ --------------------------
       1     C     6s 3p // 2s 1p 
       2     C     6s 3p // 2s 1p 
       3     H     3s // 1s 
       4     H     3s // 1s 
       5     H     3s // 1s 
       6     C     6s 3p // 2s 1p 
       7     H     3s // 1s 
       8     H     3s // 1s 
       9     C     6s 3p // 2s 1p 
      10     H     3s // 1s 
      11     H     3s // 1s 
      12     H     3s // 1s 
      13     H     3s // 1s 
      14     H     3s // 1s 

  ==> DirectJKGrad: Integral-Direct SCF Gradients <==

    Gradient:                    1
    J tasked:                  Yes
    K tasked:                  Yes
    wK tasked:                  No
    Integrals threads:           4
    Schwarz Cutoff:          1E-08


  -Nuclear Gradient:
     Atom            X                  Y                   Z
    ------   -----------------  -----------------  -----------------
       1       -1.376440016033     0.431234115019     5.729524715581
       2       -4.092048645736     1.392868300499    -1.327091609962
       3       -0.180201115609    -1.740360614370     1.226776237724
       4       -1.628028003389     0.905945416508     1.104712936827
       5        1.361389592772     0.961959229892     1.276642669377
       6        1.440777580564    -4.231092371604    -0.684197243176
       7       -0.539641218703     2.073104120666    -0.659869887808
       8       -2.045122532252    -0.768950802909    -0.740332198699
       9        3.898360233634     2.268516890204    -3.816363226216
      10       -0.475492592282    -1.929404356956    -1.171840197252
      11        1.406121377369    -1.145524504342     1.317193134610
      12        1.760197249264    -0.764455518365    -1.004448007469
      13        1.107590852746     1.681119441503     0.596358813716
      14       -0.637462762344     0.865040654254    -1.847066137254


  -Core Hamiltonian Gradient:
     Atom            X                  Y                   Z
    ------   -----------------  -----------------  -----------------
       1        2.933665243622    -0.921963918357   -10.659023517479
       2        7.365128769327    -2.188117947736     2.007233438969
       3        0.345435045320     5.050357248847    -3.015590528782
       4        4.526392978360    -2.545171173953    -2.753670135536
       5       -4.132828650405    -2.719588656969    -3.126529663860
       6       -2.554958876613     7.337471982517     1.641822533920
       7        1.146572290939    -5.916814845537     1.909672805602
       8        5.605788019648     2.268719386275     2.026361784638
       9       -7.445443516391    -3.907953976354     7.236331287315
      10        1.428367129166     5.261444457619     3.309842126800
      11       -3.894151606121     2.975492323980    -3.994021630299
      12       -4.737467858112     2.319210527143     2.593548493823
      13       -2.786907832217    -4.688087622061    -2.122875289131
      14        2.200408863479    -2.324997785413     4.946898294019


  -Overlap Gradient:
     Atom            X                  Y                   Z
    ------   -----------------  -----------------  -----------------
       1       -0.001801980336     0.001227398687    -0.045685817552
       2        0.045306142350    -0.027683376380     0.022781026070
       3        0.000268716324    -0.162441647653     0.062545976064
       4       -0.140995359033     0.081331963047     0.062889840575
       5        0.141027281662     0.080820606555     0.062594961382
       6       -0.021089530507     0.053607673174    -0.004409915466
       7       -0.007610286769     0.164356377434    -0.054667185196
       8       -0.147812167292    -0.072952074584    -0.054568786364
       9       -0.024026319310    -0.028877132069     0.026092060117
      10       -0.048627655984    -0.137339554991    -0.094453078768
      11        0.100841668947    -0.064550865498     0.125393708438
      12        0.136424894699    -0.086224670039    -0.066357162956
      13        0.061091230999     0.135550132533     0.090734855337
      14       -0.092996635753     0.063175169784    -0.132890481680


  -Coulomb Gradient:
     Atom            X                  Y                   Z
    ------   -----------------  -----------------  -----------------
       1       -1.558362646034     0.491897114137     4.896213909950
       2       -3.233253451335     0.770584527270    -0.664992631558
       3       -0.165315668534    -3.453161470412     1.844395400728
       4       -3.022034272099     1.710656489165     1.703937440565
       5        2.895134185434     1.828889945499     1.905277432189
       6        1.092664195821    -3.062113836127    -0.958884551038
       7       -0.613298933736     3.987971276861    -1.298677964436
       8       -3.689509730338    -1.564986055047    -1.335375267476
       9        3.529746992550     1.618493278235    -3.400697648070
      10       -0.997534013952    -3.452560890684    -2.220278498510
      11        2.575961989227    -1.886913025593     2.787578983664
      12        3.096903161396    -1.630507039645    -1.647143075439
      13        1.733465626037     3.126091947412     1.606040692998
      14       -1.644567434438     1.515657738928    -3.217394223566


  -Exchange Gradient:
     Atom            X                  Y                   Z
    ------   -----------------  -----------------  -----------------
       1        0.004226093215    -0.003022956732     0.080037381000
       2       -0.082293282491     0.050801708401    -0.039167520667
       3       -0.000285798640     0.305621560123    -0.117809667375
       4        0.264889802710    -0.152761767991    -0.118019398559
       5       -0.265139775859    -0.152207998582    -0.117856649696
       6        0.039947170765    -0.096134005795     0.007043020806
       7        0.015246517276    -0.308512172779     0.102391391642
       8        0.277158593353     0.136729079864     0.102660389015
       9        0.041121874869     0.051569013900    -0.045635638711
      10        0.091321648194     0.257734251903     0.176873624816
      11       -0.189668909462     0.121790548802    -0.234710437616
      12       -0.256199692737     0.162064551918     0.124612032906
      13       -0.115157249603    -0.254905368307    -0.170641790055
      14        0.174833008410    -0.118766444726     0.250223262493


  -Total Gradient:
     Atom            X                  Y                   Z
    ------   -----------------  -----------------  -----------------
       1        0.001286694434    -0.000628247246     0.001066671500
       2        0.002839532115    -0.001546787946    -0.001237297148
       3       -0.000098821139     0.000015076535     0.000317418358
       4        0.000225146549     0.000000926776    -0.000149316129
       5       -0.000417366396    -0.000126873605     0.000128749392
       6       -0.002659459971     0.001739442165     0.001373845047
       7        0.001268369007     0.000104756646    -0.001150840195
       8        0.000502183119    -0.001440466400    -0.001254078886
       9       -0.000240734647     0.001748073916    -0.000273165564
      10       -0.001965484859    -0.000126093108     0.000143977086
      11       -0.000895480039     0.000294477349     0.001433758797
      12       -0.000142245489     0.000087851012     0.000212280867
      13        0.000082627962    -0.000231468921    -0.000382717136
      14        0.000215039355     0.000109332827    -0.000229285988


*** tstop() called on PC001.IRVING.UPEI.CA at Mon Mar 30 15:17:29 2026
Module time:
	user time   =       0.35 seconds =       0.01 minutes
	system time =       0.00 seconds =       0.00 minutes
	total time  =          0 seconds =       0.00 minutes
Total time:
	user time   =      34.84 seconds =       0.58 minutes
	system time =       0.90 seconds =       0.01 minutes
	total time  =         34 seconds =       0.57 minutes

    			-----------------------------------------

    			 OPTKING 3.0: for geometry optimizations 

    			     By R.A. King, Bethel University     

    			        with contributions from          

    			    A.V. Copan, J. Cayton, A. Heide      

    			-----------------------------------------

    
	                            ===> Fragment 1 <== 

	 Z (Atomic Numbers)          Masses                          Geom                  
	       6.000000            12.000000          1.59423223 -0.23649707 -3.17312415   
	       6.000000            12.000000          1.59423223 -0.23649707 -0.26226711   
	       1.000000             1.007825          1.59423223  1.68338490 -3.89804501   
	       1.000000             1.007825          3.25828400 -1.19738895 -3.89583589   
	       1.000000             1.007825         -0.07053548 -1.19467523 -3.89822515   
	       6.000000            12.000000         -0.75491498  1.13499824  0.89898430   
	       1.000000             1.007825          1.66241400 -2.18496786  0.38778970   
	       1.000000             1.007825          3.32652108  0.65520767  0.39051974   
	       6.000000            12.000000         -2.37771019 -0.60222729  2.57876738   
	       1.000000             1.007825         -0.14872151  2.74667260  2.02020136   
	       1.000000             1.007825         -1.94346827  1.88409526 -0.60100101   
	       1.000000             1.007825         -3.97772023  0.42722166  3.35006293   
	       1.000000             1.007825         -3.09441483 -2.19344904  1.49725171   
	       1.000000             1.007825         -1.27145975 -1.33785333  4.14290333   

	 - Coordinate -           - BOHR/RAD -       - ANG/DEG -
	 R(1,2)           =         2.910857           1.540359
	 R(1,3)           =         2.052183           1.085969
	 R(1,4)           =         2.052972           1.086386
	 R(1,5)           =         2.053126           1.086468
	 R(2,6)           =         2.957701           1.565148
	 R(2,7)           =         2.055179           1.087554
	 R(2,8)           =         2.054773           1.087339
	 R(6,9)           =         2.910857           1.540359
	 R(6,10)          =         2.054773           1.087339
	 R(6,11)          =         2.055179           1.087554
	 R(9,12)          =         2.052972           1.086386
	 R(9,13)          =         2.053126           1.086468
	 R(9,14)          =         2.052183           1.085969
	 B(1,2,6)         =         1.974274         113.117595
	 B(1,2,7)         =         1.892625         108.439419
	 B(1,2,8)         =         1.894092         108.523459
	 B(2,1,3)         =         1.931832         110.685842
	 B(2,1,4)         =         1.930537         110.611650
	 B(2,1,5)         =         1.931753         110.681279
	 B(2,6,9)         =         1.974275         113.117609
	 B(2,6,10)        =         1.921576         110.098212
	 B(2,6,11)        =         1.919618         109.985997
	 B(3,1,4)         =         1.889696         108.271589
	 B(3,1,5)         =         1.887936         108.170781
	 B(4,1,5)         =         1.890700         108.329115
	 B(6,2,7)         =         1.919618         109.985983
	 B(6,2,8)         =         1.921577         110.098231
	 B(6,9,12)        =         1.930538         110.611673
	 B(6,9,13)        =         1.931753         110.681269
	 B(6,9,14)        =         1.931832         110.685828
	 B(7,2,8)         =         1.857695         106.438109
	 B(9,6,10)        =         1.894092         108.523451
	 B(9,6,11)        =         1.892625         108.439414
	 B(10,6,11)       =         1.857696         106.438114
	 B(12,9,13)       =         1.890700         108.329116
	 B(12,9,14)       =         1.889696         108.271588
	 B(13,9,14)       =         1.887936         108.170782
	*D(1,2,6,9)       =         2.094395         120.000000
	 D(1,2,6,10)      =        -2.066409        -118.396533
	 D(1,2,6,11)      =        -0.024679          -1.413982
	 D(2,6,9,12)      =         3.136816         179.726326
	 D(2,6,9,13)      =        -1.050700         -60.200692
	 D(2,6,9,14)      =         1.042353          59.722418
	 D(3,1,2,6)       =         1.042354          59.722468
	 D(3,1,2,7)       =         3.176571         182.004102
	 D(3,1,2,8)       =        -1.095414         -62.762618
	 D(4,1,2,6)       =         3.136817         179.726371
	 D(4,1,2,7)       =        -1.012151         -57.991995
	 D(4,1,2,8)       =         0.999049          57.241285
	 D(5,1,2,6)       =        -1.050700         -60.200656
	 D(5,1,2,7)       =         1.083517          62.080977
	 D(5,1,2,8)       =         3.094718         177.314257
	 D(7,2,6,9)       =        -0.024678          -1.413969
	 D(7,2,6,10)      =         2.097702         120.189497
	 D(7,2,6,11)      =        -2.143752        -122.827951
	 D(8,2,6,9)       =        -2.066409        -118.396518
	 D(8,2,6,10)      =         0.055972           3.206948
	 D(8,2,6,11)      =         2.097702         120.189500
	 D(10,6,9,12)     =         0.999048          57.241261
	 D(10,6,9,13)     =         3.094717         177.314243
	 D(10,6,9,14)     =        -1.095415         -62.762647
	 D(11,6,9,12)     =        -1.012152         -57.992017
	 D(11,6,9,13)     =         1.083517          62.080965
	 D(11,6,9,14)     =         3.176570         182.004075


	        --- Internal Coordinate Step in ANG or DEG, aJ/ANG or AJ/DEG ---
	-------------------------------------------------------------------------------
	           Coordinate      Previous         Force          Change          New 
	           ----------      --------        ------          ------        ------
	               R(1,2)       1.54036        0.01123        0.00167       1.54203
	               R(1,3)       1.08597        0.00081        0.00010       1.08607
	               R(1,4)       1.08639       -0.00193       -0.00022       1.08617
	               R(1,5)       1.08647       -0.00290       -0.00028       1.08619
	               R(2,6)       1.56515       -0.05789       -0.00805       1.55710
	               R(2,7)       1.08755        0.00347        0.00037       1.08793
	               R(2,8)       1.08734        0.00494        0.00054       1.08788
	               R(6,9)       1.54036        0.01123        0.00167       1.54203
	              R(6,10)       1.08734        0.00494        0.00054       1.08788
	              R(6,11)       1.08755        0.00347        0.00037       1.08793
	              R(9,12)       1.08639       -0.00193       -0.00022       1.08617
	              R(9,13)       1.08647       -0.00290       -0.00028       1.08619
	              R(9,14)       1.08597        0.00081        0.00010       1.08607
	             B(1,2,6)     113.11760       -0.00003       -0.19834     112.91926
	             B(1,2,7)     108.43942        0.00007        0.35593     108.79535
	             B(1,2,8)     108.52346        0.00008        0.40859     108.93205
	             B(2,1,3)     110.68584        0.00003        0.12723     110.81307
	             B(2,1,4)     110.61165       -0.00002       -0.07566     110.53599
	             B(2,1,5)     110.68128        0.00003        0.05182     110.73310
	             B(2,6,9)     113.11761       -0.00003       -0.19835     112.91926
	            B(2,6,10)     110.09821       -0.00008       -0.41535     109.68286
	            B(2,6,11)     109.98600       -0.00007       -0.39926     109.58674
	             B(3,1,4)     108.27159       -0.00001       -0.03359     108.23800
	             B(3,1,5)     108.17078       -0.00002       -0.01214     108.15864
	             B(4,1,5)     108.32911       -0.00001       -0.06214     108.26698
	             B(6,2,7)     109.98598       -0.00007       -0.39924     109.58674
	             B(6,2,8)     110.09823       -0.00008       -0.41536     109.68287
	            B(6,9,12)     110.61167       -0.00002       -0.07568     110.53600
	            B(6,9,13)     110.68127        0.00003        0.05183     110.73310
	            B(6,9,14)     110.68583        0.00003        0.12724     110.81307
	             B(7,2,8)     106.43811        0.00003        0.29224     106.73035
	            B(9,6,10)     108.52345        0.00008        0.40860     108.93205
	            B(9,6,11)     108.43941        0.00007        0.35594     108.79535
	           B(10,6,11)     106.43811        0.00003        0.29224     106.73035
	           B(12,9,13)     108.32912       -0.00001       -0.06214     108.26698
	           B(12,9,14)     108.27159       -0.00001       -0.03359     108.23800
	           B(13,9,14)     108.17078       -0.00002       -0.01214     108.15864
	          *D(1,2,6,9)     120.00000        0.00000        0.00000     120.00000
	          D(1,2,6,10)    -118.39653        0.00002        0.08907    -118.30746
	          D(1,2,6,11)      -1.41398       -0.00003       -0.03476      -1.44874
	          D(2,6,9,12)     179.72633        0.00000        0.95313     180.67945
	          D(2,6,9,13)     -60.20069       -0.00001        0.85965     -59.34104
	          D(2,6,9,14)      59.72242        0.00000        0.96172      60.68414
	           D(3,1,2,6)      59.72247        0.00000        0.96166      60.68413
	           D(3,1,2,7)     182.00410       -0.00005        0.57525     182.57935
	           D(3,1,2,8)     -62.76262        0.00007        1.33168     -61.43094
	           D(4,1,2,6)     179.72637        0.00000        0.95307     180.67944
	           D(4,1,2,7)     -57.99199       -0.00005        0.56666     -57.42533
	           D(4,1,2,8)      57.24128        0.00006        1.32309      58.56437
	           D(5,1,2,6)     -60.20066       -0.00001        0.85961     -59.34105
	           D(5,1,2,7)      62.08098       -0.00006        0.47320      62.55418
	           D(5,1,2,8)     177.31426        0.00005        1.22962     178.54388
	           D(7,2,6,9)      -1.41397       -0.00003       -0.03477      -1.44874
	          D(7,2,6,10)     120.18950       -0.00000        0.05430     120.24380
	          D(7,2,6,11)    -122.82795       -0.00005       -0.06953    -122.89748
	           D(8,2,6,9)    -118.39652        0.00002        0.08905    -118.30746
	          D(8,2,6,10)       3.20695        0.00005        0.17812       3.38507
	          D(8,2,6,11)     120.18950       -0.00000        0.05430     120.24380
	         D(10,6,9,12)      57.24126        0.00006        1.32312      58.56438
	         D(10,6,9,13)     177.31424        0.00005        1.22965     178.54389
	         D(10,6,9,14)     -62.76265        0.00007        1.33172     -61.43093
	         D(11,6,9,12)     -57.99202       -0.00005        0.56669     -57.42532
	         D(11,6,9,13)      62.08097       -0.00006        0.47322      62.55418
	         D(11,6,9,14)     182.00408       -0.00005        0.57529     182.57936
	-------------------------------------------------------------------------------

	                                 ==> Convergence Check <==                                  
    
	Measures of convergence in internal coordinates in au.
    
	Criteria marked as inactive (o), active & met (*), and active & unmet ( ).

	----------------------------------------------------------------------------------------------
	   Step    Total Energy     Delta E     Max Force     RMS Force      Max Disp      RMS Disp   
	----------------------------------------------------------------------------------------------
	  Convergence Criteria     1.00e-06 *    3.00e-04 *             o    1.20e-03 *             o
	----------------------------------------------------------------------------------------------
	     2    -155.46112075   -3.05e-04      7.03e-03      1.06e-03 o    2.32e-02      9.62e-03 o  ~
	----------------------------------------------------------------------------------------------

Next Geometry in Ang 
	Fragment 1 (Ang)

	    C   0.8378892206  -0.1219619300  -1.6779018798
	    C   0.8410696856  -0.1233219534  -0.1358734253
	    H   0.8547994455   0.8934205261  -2.0629443459
	    H   1.7090145000  -0.6454118433  -2.0611849772
	    H  -0.0511611735  -0.6145178298  -2.0610316600
	    C  -0.3957436478   0.6000498403   0.4737037288
	    H   0.8701901103  -1.1531535490   0.2136773932
	    H   1.7539792606   0.3526322474   0.2156238672
	    C  -1.2535074561  -0.3229634106   1.3626083378
	    H  -0.0673680065   1.4529093638   1.0638619399
	    H  -1.0187693381   0.9940972427  -0.3263915911
	    H  -2.1099343723   0.2162213467   1.7570417704
	    H  -1.6189039890  -1.1733113071   0.7940978438
	    H  -0.6738387612  -0.6996993219   2.2002236737


    Structure for next step:
    Molecular point group: c1
    Full point group: C1

    Geometry (in Angstrom), charge = 0, multiplicity = 1:

    C       
    C             1    1.542032
    H             1    1.086069      2  110.813071
    H             1    1.086170      2  110.535993      3  119.995313
    H             1    1.086191      2  110.733103      3 -120.025179
    C             2    1.557099      1  112.919257      3   60.684129
    H             2    1.087928      1  108.795353      6  121.895226
    H             2    1.087882      1  108.932051      6 -122.115071
    C             6    1.542032      2  112.919258      1    dihedral
    H             6    1.087882      2  109.682864      9  121.692537
    H             6    1.087928      2  109.586737      9 -121.448740
    H             9    1.086170      6  110.535997     10   58.564381
    H             9    1.086191      6  110.733102     12  119.979508
    H             9    1.086069      6  110.813069     12 -119.995313

    dihedral  =  120.0000000000


Scratch directory: /tmp/
gradient() will perform analytic gradient computation.
   => Libint2 <=

    Primary   basis highest AM E, G, H:  7, 6, 3
    Auxiliary basis highest AM E, G, H:  7, 7, 4
    Onebody   basis highest AM E, G, H:  -, -, -
    Solid Harmonics ordering:            Gaussian

*** tstart() called on PC001.IRVING.UPEI.CA
*** at Mon Mar 30 15:17:29 2026

   => Loading Basis Set <=

    Name: STO-3G
    Role: ORBITAL
    Keyword: BASIS
    atoms 1-2, 6, 9       entry C          line    61 file /opt/anaconda3/envs/p4dev/share/psi4/basis/sto-3g.gbs 
    atoms 3-5, 7-8, 10-14 entry H          line    19 file /opt/anaconda3/envs/p4dev/share/psi4/basis/sto-3g.gbs 


         ---------------------------------------------------------
                                   SCF
               by Justin Turney, Rob Parrish, Andy Simmonett
                          and Daniel G. A. Smith
                              RHF Reference
                        4 Threads,    953 MiB Core
         ---------------------------------------------------------

  ==> Geometry <==

    Molecular point group: c1
    Full point group: C1

    Geometry (in Angstrom), charge = 0, multiplicity = 1:

       Center              X                  Y                   Z               Mass       
    ------------   -----------------  -----------------  -----------------  -----------------
         C            0.843343435921    -0.108781615286    -1.676084790007    12.000000000000
         C            0.843343435921    -0.108781615286    -0.134052455881    12.000000000000
         H            0.843343435921     0.906415269856    -2.061986944691     1.007825032230
         H            1.724259267850    -0.617282539458    -2.057108547856     1.007825032230
         H           -0.036184014085    -0.617092512664    -2.060612867501     1.007825032230
         C           -0.407160693413     0.593424118913     0.472334227570    12.000000000000
         H            0.889692705923    -1.137652632564     0.216465823209     1.007825032230
         H            1.747081628324     0.383319487987     0.218907065692     1.007825032230
         C           -1.250542258956    -0.343656860028     1.360281517601    12.000000000000
         H           -0.094935087756     1.452380037512     1.062416038607     1.007825032230
         H           -1.035299943610     0.975868415917    -0.329391616505     1.007825032230
         H           -2.117059565320     0.180842296561     1.752472020596     1.007825032230
         H           -1.599871822377    -1.200728908776     0.791768797851     1.007825032230
         H           -0.666133168562    -0.709516762365     2.199422590610     1.007825032230

  Running in c1 symmetry.

  Rotational constants: A =      0.59968  B =      0.12432  C =      0.12427 [cm^-1]
  Rotational constants: A =  17977.83070  B =   3726.91240  C =   3725.53532 [MHz]
  Nuclear repulsion =  130.503688390382962

  Charge       = 0
  Multiplicity = 1
  Electrons    = 34
  Nalpha       = 17
  Nbeta        = 17

  ==> Algorithm <==

  SCF Algorithm Type is DIRECT.
  DIIS enabled.
  MOM disabled.
  Fractional occupation disabled.
  Guess Type is READ.
  Energy threshold   = 1.00e-08
  Density threshold  = 1.00e-08
  Integral threshold = 1.00e-08

  ==> Primary Basis <==

  -AO BASIS SET INFORMATION:
    Name                   = STO-3G
    Blend                  = STO-3G
    Total number of shells = 22
    Number of primitives   = 66
    Number of AO           = 30
    Number of SO           = 30
    Maximum AM             = 1
    Spherical Harmonics    = TRUE

  -Contraction Scheme:
    Atom   Type   All Primitives // Shells:
   ------ ------ --------------------------
       1     C     6s 3p // 2s 1p 
       2     C     6s 3p // 2s 1p 
       3     H     3s // 1s 
       4     H     3s // 1s 
       5     H     3s // 1s 
       6     C     6s 3p // 2s 1p 
       7     H     3s // 1s 
       8     H     3s // 1s 
       9     C     6s 3p // 2s 1p 
      10     H     3s // 1s 
      11     H     3s // 1s 
      12     H     3s // 1s 
      13     H     3s // 1s 
      14     H     3s // 1s 

   => Loading Basis Set <=

    Name: (STO-3G AUX)
    Role: JKFIT
    Keyword: DF_BASIS_SCF
    atoms 1-2, 6, 9       entry C          line   198 file /opt/anaconda3/envs/p4dev/share/psi4/basis/def2-universal-jkfit.gbs 
    atoms 3-5, 7-8, 10-14 entry H          line    18 file /opt/anaconda3/envs/p4dev/share/psi4/basis/def2-universal-jkfit.gbs 

   => Loading Basis Set <=

    Name: STO-3G
    Role: ORBITAL
    Keyword: BASIS
    atoms 1-2, 6, 9       entry C          line    61 file /opt/anaconda3/envs/p4dev/share/psi4/basis/sto-3g.gbs 
    atoms 3-5, 7-8, 10-14 entry H          line    19 file /opt/anaconda3/envs/p4dev/share/psi4/basis/sto-3g.gbs 

  Reading orbitals from file /tmp/butane_eclipsed_1.default.2575.180.npy, no projection.

  Starting with a DF guess...

  ==> Integral Setup <==

  DFHelper Memory: AOs need 0.005 GiB; user supplied 0.698 GiB. 
  SCF_SUBTYPE=INCORE selected. In-core MEM_DF algorithm will be used.
  Using in-core AOs.

  ==> MemDFJK: Density-Fitted J/K Matrices <==

    J tasked:                   Yes
    K tasked:                   Yes
    wK tasked:                   No
    OpenMP threads:               4
    Memory [MiB]:               715
    Algorithm:                 Core
    Schwarz Cutoff:           1E-08
    Mask sparsity (%):       0.6667
    Fitting Condition:        1E-10

   => Auxiliary Basis Set <=

  -AO BASIS SET INFORMATION:
    Name                   = (STO-3G AUX)
    Blend                  = DEF2-UNIVERSAL-JKFIT
    Total number of shells = 160
    Number of primitives   = 212
    Number of AO           = 556
    Number of SO           = 480
    Maximum AM             = 4
    Spherical Harmonics    = TRUE

  -Contraction Scheme:
    Atom   Type   All Primitives // Shells:
   ------ ------ --------------------------
       1     C     14s 10p 6d 2f 1g // 10s 8p 5d 1f 1g 
       2     C     14s 10p 6d 2f 1g // 10s 8p 5d 1f 1g 
       3     H     4s 2p 2d // 2s 2p 2d 
       4     H     4s 2p 2d // 2s 2p 2d 
       5     H     4s 2p 2d // 2s 2p 2d 
       6     C     14s 10p 6d 2f 1g // 10s 8p 5d 1f 1g 
       7     H     4s 2p 2d // 2s 2p 2d 
       8     H     4s 2p 2d // 2s 2p 2d 
       9     C     14s 10p 6d 2f 1g // 10s 8p 5d 1f 1g 
      10     H     4s 2p 2d // 2s 2p 2d 
      11     H     4s 2p 2d // 2s 2p 2d 
      12     H     4s 2p 2d // 2s 2p 2d 
      13     H     4s 2p 2d // 2s 2p 2d 
      14     H     4s 2p 2d // 2s 2p 2d 

  Minimum eigenvalue in the overlap matrix is 2.0117820126E-01.
  Reciprocal condition number of the overlap matrix is 7.7779268741E-02.
    Using symmetric orthogonalization.

  ==> Pre-Iterations <==

  SCF Guess: Orbitals guess was supplied from a previous computation.

   -------------------------------------------------------
    Irrep   Nso     Nmo     Nalpha   Nbeta   Ndocc  Nsocc
   -------------------------------------------------------
     A         30      30      17      17      17       0
   -------------------------------------------------------
[...]
      11        1.409686347546    -1.137639418561     1.321792384779
      12        1.774716279524    -0.747414539310    -0.993398344411
      13        1.087076109025     1.697323808827     0.594120763268
      14       -0.637921698879     0.850760677346    -1.854634933146


  -Core Hamiltonian Gradient:
     Atom            X                  Y                   Z
    ------   -----------------  -----------------  -----------------
       1        2.930735143099    -0.883057111690   -10.670076044146
       2        7.478628811597    -2.193381003683     1.922413820115
       3        0.347353495581     5.050036215536    -3.026132873032
       4        4.525327660549    -2.545833023956    -2.753765538832
       5       -4.126190585509    -2.724905134283    -3.135762691130
       6       -2.735438869790     7.350757494479     1.708867162512
       7        1.150889407521    -5.902723217020     1.960741569382
       8        5.553472618326     2.369185734781     2.074876347476
       9       -7.408594023056    -3.985819130457     7.241926636401
      10        1.467256665031     5.264609930082     3.300038082594
      11       -3.871739864828     2.944281723689    -4.043764414194
      12       -4.778931067454     2.270084452661     2.559612320545
      13       -2.729597895570    -4.729546706277    -2.112876694874
      14        2.196828504505    -2.283690223864     4.973902317183


  -Overlap Gradient:
     Atom            X                  Y                   Z
    ------   -----------------  -----------------  -----------------
       1       -0.001123020853     0.000513794971    -0.045842979024
       2        0.043961937309    -0.025982115050     0.024775912280
       3        0.000235628319    -0.162421549381     0.062936720720
       4       -0.140825803565     0.081362208173     0.062916807253
       5        0.140828703217     0.081007020316     0.062755602132
       6       -0.018908359097     0.053223422198    -0.005595464329
       7       -0.007234567563     0.163864928161    -0.056460512821
       8       -0.145645395389    -0.075935828537    -0.056293633147
       9       -0.024639882222    -0.028526363870     0.026119486435
      10       -0.050360464725    -0.137185718499    -0.093764101185
      11        0.099501195405    -0.063541362075     0.127097797974
      12        0.137797931368    -0.084654481533    -0.065234873867
      13        0.059254971144     0.136548424400     0.090424015281
      14       -0.092842873348     0.061727620725    -0.133834777701


  -Coulomb Gradient:
     Atom            X                  Y                   Z
    ------   -----------------  -----------------  -----------------
       1       -1.544835019308     0.461484490764     4.906184262070
       2       -3.283725529901     0.776945273077    -0.614308813919
       3       -0.167009604848    -3.452475907633     1.853656042250
       4       -3.020027978165     1.711647990246     1.703920757438
       5        2.889872322380     1.832854823689     1.911835942146
       6        1.181963804606    -3.062237919790    -0.994753546533
       7       -0.604142307057     3.978282400595    -1.343609313391
       8       -3.645993497223    -1.642328252346    -1.378170249704
       9        3.504835879277     1.669668495791    -3.405650893438
      10       -1.040380550965    -3.453270879196    -2.209613659516
      11        2.549609415268    -1.862932526144     2.833015852515
      12        3.125193473341    -1.597299239473    -1.623408304038
      13        1.695074331705     3.152460008687     1.598297372875
      14       -1.640434739111     1.487201241734    -3.237395448754


  -Exchange Gradient:
     Atom            X                  Y                   Z
    ------   -----------------  -----------------  -----------------
       1        0.002544473033    -0.001306271675     0.080179273003
       2       -0.079202995975     0.047283763345    -0.043421089309
       3       -0.000164621389     0.305429141185    -0.118579487391
       4        0.264666470432    -0.152892811872    -0.117974418028
       5       -0.264657183399    -0.152571251289    -0.118209251214
       6        0.035110378243    -0.095226633726     0.009664786792
       7        0.014354289265    -0.307626957805     0.105893126436
       8        0.273147808146     0.142600336393     0.106040975988
       9        0.042613817528     0.050407863947    -0.045607113051
      10        0.094853045347     0.257535207621     0.175692305904
      11       -0.187066128092     0.119833515632    -0.238117484450
      12       -0.258811701868     0.159258834649     0.122456690041
      13       -0.111772238797    -0.256728861161    -0.169976753019
      14        0.174384587525    -0.115995875245     0.251958438298


  -Total Gradient:
     Atom            X                  Y                   Z
    ------   -----------------  -----------------  -----------------
       1        0.000053476559    -0.000043023516    -0.000009351386
       2       -0.000072288136    -0.000000575878     0.000002013803
       3       -0.000003558012     0.000007674807     0.000012232851
       4        0.000005325526    -0.000007386547    -0.000050275525
       5        0.000028479630     0.000012650384     0.000060109014
       6        0.000020723828    -0.000055482590    -0.000041485883
       7        0.000017376253     0.000007134638    -0.000017753415
       8       -0.000006896793     0.000021290994    -0.000022433356
       9       -0.000053807244     0.000042655511     0.000009095601
      10        0.000006229981    -0.000022012511     0.000021923992
      11       -0.000009034702     0.000001932541     0.000024136624
      12       -0.000035085089    -0.000024973006     0.000027488269
      13        0.000035277506     0.000056674477    -0.000011296469
      14        0.000013780693     0.000003440697    -0.000004404122


*** tstop() called on PC001.IRVING.UPEI.CA at Mon Mar 30 15:17:31 2026
Module time:
	user time   =       0.36 seconds =       0.01 minutes
	system time =       0.00 seconds =       0.00 minutes
	total time  =          0 seconds =       0.00 minutes
Total time:
	user time   =      42.23 seconds =       0.70 minutes
	system time =       1.05 seconds =       0.02 minutes
	total time  =         36 seconds =       0.60 minutes

    			-----------------------------------------

    			 OPTKING 3.0: for geometry optimizations 

    			     By R.A. King, Bethel University     

    			        with contributions from          

    			    A.V. Copan, J. Cayton, A. Heide      

    			-----------------------------------------

    
	                            ===> Fragment 1 <== 

	 Z (Atomic Numbers)          Masses                          Geom                  
	       6.000000            12.000000          1.59092438 -0.22167251 -3.17034036   
	       6.000000            12.000000          1.59092438 -0.22167251 -0.25703500   
	       1.000000             1.007825          1.59092438  1.69750163 -3.89749641   
	       1.000000             1.007825          3.25460173 -1.18270076 -3.89286234   
	       1.000000             1.007825         -0.07170555 -1.18153539 -3.89571835   
	       6.000000            12.000000         -0.75786320  1.12747854  0.89480818   
	       1.000000             1.007825          1.66554342 -2.16644293  0.40508789   
	       1.000000             1.007825          3.30687629  0.69536147  0.40673812   
	       6.000000            12.000000         -2.36917559 -0.62453742  2.57452847   
	       1.000000             1.007825         -0.14665312  2.74081971  2.01265859   
	       1.000000             1.007825         -1.94003761  1.86797928 -0.61523454   
	       1.000000             1.007825         -3.98547281  0.38800833  3.33332361   
	       1.000000             1.007825         -3.06290173 -2.22679309  1.49593259   
	       1.000000             1.007825         -1.26378780 -1.34179869  4.14794494   

	 - Coordinate -           - BOHR/RAD -       - ANG/DEG -
	 R(1,2)           =         2.913305           1.541655
	 R(1,3)           =         2.052312           1.086037
	 R(1,4)           =         2.052665           1.086224
	 R(1,5)           =         2.052279           1.086019
	 R(2,6)           =         2.943426           1.557594
	 R(2,7)           =         2.055750           1.087856
	 R(2,8)           =         2.055733           1.087847
	 R(6,9)           =         2.913305           1.541655
	 R(6,10)          =         2.055733           1.087847
	 R(6,11)          =         2.055750           1.087856
	 R(9,12)          =         2.052665           1.086224
	 R(9,13)          =         2.052279           1.086019
	 R(9,14)          =         2.052312           1.086037
	 B(1,2,6)         =         1.972870         113.037121
	 B(1,2,7)         =         1.898726         108.788969
	 B(1,2,8)         =         1.899577         108.837719
	 B(2,1,3)         =         1.932973         110.751201
	 B(2,1,4)         =         1.930495         110.609208
	 B(2,1,5)         =         1.932053         110.698480
	 B(2,6,9)         =         1.972870         113.037120
	 B(2,6,10)        =         1.912678         109.588381
	 B(2,6,11)        =         1.914038         109.666273
	 B(3,1,4)         =         1.889250         108.246075
	 B(3,1,5)         =         1.888234         108.187862
	 B(4,1,5)         =         1.889388         108.253952
	 B(6,2,7)         =         1.914038         109.666274
	 B(6,2,8)         =         1.912678         109.588380
	 B(6,9,12)        =         1.930495         110.609207
	 B(6,9,13)        =         1.932053         110.698481
	 B(6,9,14)        =         1.932973         110.751203
	 B(7,2,8)         =         1.862630         106.720841
	 B(9,6,10)        =         1.899577         108.837720
	 B(9,6,11)        =         1.898726         108.788970
	 B(10,6,11)       =         1.862630         106.720840
	 B(12,9,13)       =         1.889388         108.253951
	 B(12,9,14)       =         1.889250         108.246074
	 B(13,9,14)       =         1.888234         108.187862
	*D(1,2,6,9)       =         2.094395         120.000000
	 D(1,2,6,10)      =        -2.066749        -118.416007
	 D(1,2,6,11)      =        -0.027532          -1.577457
	 D(2,6,9,12)      =         3.144033         180.139813
	 D(2,6,9,13)      =        -1.044959         -59.871723
	 D(2,6,9,14)      =         1.049411          60.126805
	 D(3,1,2,6)       =         1.049411          60.126804
	 D(3,1,2,7)       =         3.179943         182.197308
	 D(3,1,2,8)       =        -1.079996         -61.879192
	 D(4,1,2,6)       =         3.144033         180.139812
	 D(4,1,2,7)       =        -1.008620         -57.789684
	 D(4,1,2,8)       =         1.014626          58.133816
	 D(5,1,2,6)       =        -1.044959         -59.871724
	 D(5,1,2,7)       =         1.085574          62.198781
	 D(5,1,2,8)       =         3.108820         178.122280
	 D(7,2,6,9)       =        -0.027532          -1.577457
	 D(7,2,6,10)      =         2.094509         120.006536
	 D(7,2,6,11)      =        -2.149459        -123.154914
	 D(8,2,6,9)       =        -2.066749        -118.416008
	 D(8,2,6,10)      =         0.055292           3.167985
	 D(8,2,6,11)      =         2.094509         120.006535
	 D(10,6,9,12)     =         1.014627          58.133817
	 D(10,6,9,13)     =         3.108820         178.122281
	 D(10,6,9,14)     =        -1.079996         -61.879191
	 D(11,6,9,12)     =        -1.008620         -57.789683
	 D(11,6,9,13)     =         1.085574          62.198781
	 D(11,6,9,14)     =         3.179943         182.197309


	        --- Internal Coordinate Step in ANG or DEG, aJ/ANG or AJ/DEG ---
	-------------------------------------------------------------------------------
	           Coordinate      Previous         Force          Change          New 
	           ----------      --------        ------          ------        ------
	               R(1,2)       1.54165        0.00010        0.00000       1.54166
	               R(1,3)       1.08604       -0.00002       -0.00001       1.08603
	               R(1,4)       1.08622       -0.00021       -0.00003       1.08619
	               R(1,5)       1.08602        0.00041        0.00007       1.08608
	               R(2,6)       1.55759       -0.00023        0.00002       1.55761
	               R(2,7)       1.08786        0.00010        0.00001       1.08787
	               R(2,8)       1.08785        0.00003        0.00000       1.08785
	               R(6,9)       1.54165        0.00010        0.00000       1.54166
	              R(6,10)       1.08785        0.00003        0.00000       1.08785
	              R(6,11)       1.08786        0.00010        0.00001       1.08787
	              R(9,12)       1.08622       -0.00021       -0.00003       1.08619
	              R(9,13)       1.08602        0.00041        0.00007       1.08608
	              R(9,14)       1.08604       -0.00002       -0.00001       1.08603
	             B(1,2,6)     113.03712       -0.00000       -0.01126     113.02586
	             B(1,2,7)     108.78897        0.00000       -0.00217     108.78679
	             B(1,2,8)     108.83772        0.00000        0.01555     108.85327
	             B(2,1,3)     110.75120        0.00000        0.00435     110.75555
	             B(2,1,4)     110.60921       -0.00001       -0.02794     110.58126
	             B(2,1,5)     110.69848        0.00001        0.02707     110.72555
	             B(2,6,9)     113.03712       -0.00000       -0.01126     113.02586
	            B(2,6,10)     109.58838        0.00000        0.01462     109.60300
	            B(2,6,11)     109.66627       -0.00000       -0.01175     109.65452
	             B(3,1,4)     108.24607        0.00000       -0.00275     108.24333
	             B(3,1,5)     108.18786       -0.00000       -0.00095     108.18691
	             B(4,1,5)     108.25395        0.00000        0.00006     108.25402
	             B(6,2,7)     109.66627       -0.00000       -0.01175     109.65452
	             B(6,2,8)     109.58838        0.00000        0.01462     109.60300
	            B(6,9,12)     110.60921       -0.00001       -0.02794     110.58127
	            B(6,9,13)     110.69848        0.00001        0.02707     110.72555
	            B(6,9,14)     110.75120        0.00000        0.00435     110.75555
	             B(7,2,8)     106.72084       -0.00000       -0.00459     106.71625
	            B(9,6,10)     108.83772        0.00000        0.01555     108.85327
	            B(9,6,11)     108.78897        0.00000       -0.00218     108.78679
	           B(10,6,11)     106.72084       -0.00000       -0.00459     106.71625
	           B(12,9,13)     108.25395        0.00000        0.00006     108.25402
	           B(12,9,14)     108.24607        0.00000       -0.00275     108.24333
	           B(13,9,14)     108.18786       -0.00000       -0.00095     108.18691
	          *D(1,2,6,9)     120.00000        0.00000        0.00000     120.00000
	          D(1,2,6,10)    -118.41601        0.00000        0.02278    -118.39323
	          D(1,2,6,11)      -1.57746        0.00000        0.01890      -1.55856
	          D(2,6,9,12)     180.13981        0.00000        0.00843     180.14824
	          D(2,6,9,13)     -59.87172        0.00000        0.00790     -59.86382
	          D(2,6,9,14)      60.12681        0.00000        0.02732      60.15412
	           D(3,1,2,6)      60.12680        0.00000        0.02732      60.15413
	           D(3,1,2,7)     182.19731        0.00000        0.00326     182.20057
	           D(3,1,2,8)     -61.87919        0.00000        0.00508     -61.87411
	           D(4,1,2,6)     180.13981        0.00000        0.00843     180.14824
	           D(4,1,2,7)     -57.78968       -0.00000       -0.01563     -57.80531
	           D(4,1,2,8)      58.13382       -0.00000       -0.01381      58.12001
	           D(5,1,2,6)     -59.87172        0.00000        0.00791     -59.86382
	           D(5,1,2,7)      62.19878       -0.00000       -0.01616      62.18262
	           D(5,1,2,8)     178.12228       -0.00000       -0.01434     178.10794
	           D(7,2,6,9)      -1.57746        0.00000        0.01890      -1.55856
	          D(7,2,6,10)     120.00654        0.00000        0.04167     120.04821
	          D(7,2,6,11)    -123.15491        0.00000        0.03779    -123.11712
	           D(8,2,6,9)    -118.41601        0.00000        0.02278    -118.39323
	          D(8,2,6,10)       3.16799        0.00000        0.04556       3.21354
	          D(8,2,6,11)     120.00654        0.00000        0.04167     120.04821
	         D(10,6,9,12)      58.13382       -0.00000       -0.01381      58.12000
	         D(10,6,9,13)     178.12228       -0.00000       -0.01434     178.10794
	         D(10,6,9,14)     -61.87919        0.00000        0.00508     -61.87411
	         D(11,6,9,12)     -57.78968       -0.00000       -0.01563     -57.80531
	         D(11,6,9,13)      62.19878       -0.00000       -0.01616      62.18262
	         D(11,6,9,14)     182.19731        0.00000        0.00326     182.20057
	-------------------------------------------------------------------------------

	                                 ==> Convergence Check <==                                  
    
	Measures of convergence in internal coordinates in au.
    
	Criteria marked as inactive (o), active & met (*), and active & unmet ( ).

	----------------------------------------------------------------------------------------------
	   Step    Total Energy     Delta E     Max Force     RMS Force      Max Disp      RMS Disp   
	----------------------------------------------------------------------------------------------
	  Convergence Criteria     1.00e-06 *    3.00e-04 *             o    1.20e-03 *             o
	----------------------------------------------------------------------------------------------
	     4    -155.46123722   -5.09e-06      8.16e-05 *    2.87e-05 o    7.95e-04 *    2.85e-04 o  ~
	----------------------------------------------------------------------------------------------

Next Geometry in Ang 
	Fragment 1 (Ang)

	    C   0.8416888581  -0.1171486184  -1.6776322617
	    C   0.8419272720  -0.1172771531  -0.1359757293
	    H   0.8421249087   0.8984322502  -2.0624173058
	    H   1.7220650608  -0.6258887622  -2.0596459498
	    H  -0.0381678645  -0.6248627711  -2.0618950417
	    C  -0.4010128200   0.5966932762   0.4735300559
	    H   0.8810253928  -1.1464752424   0.2142772552
	    H   1.7501340569   0.3675595744   0.2154573797
	    C  -1.2535164380  -0.3306406940   1.3623461970
	    H  -0.0778637418   1.4507372555   1.0647956475
	    H  -1.0266100916   0.9881777517  -0.3257336576
	    H  -2.1087873346   0.2053969963   1.7635799706
	    H  -1.6206628255  -1.1788208287   0.7919310970
	    H  -0.6686880681  -0.7098505227   2.1951966658


    Final optimized geometry and variables:
    Molecular point group: c1
    Full point group: C1

    Geometry (in Angstrom), charge = 0, multiplicity = 1:

    C       
    C             1    1.541655
    H             1    1.086037      2  110.751201
    H             1    1.086224      2  110.609208      3  120.013008
    H             1    1.086019      2  110.698480      3 -119.998528
    C             2    1.557594      1  113.037121      3   60.126804
    H             2    1.087856      1  108.788969      6  122.070505
    H             2    1.087847      1  108.837719      6 -122.005996
    C             6    1.541655      2  113.037120      1    dihedral
    H             6    1.087847      2  109.588381      9  121.583993
    H             6    1.087856      2  109.666273      9 -121.577457
    H             9    1.086224      6  110.609207     10   58.133817
    H             9    1.086019      6  110.698481     12  119.988464
    H             9    1.086037      6  110.751203     12 -120.013008

    dihedral  =  120.0000000000

