
    -----------------------------------------------------------------------
          Psi4: An Open-Source Ab Initio Electronic Structure Package
                               Psi4 1.9.1 release

                         Git: Rev {} zzzzzzz 


    D. G. A. Smith, L. A. Burns, A. C. Simmonett, R. M. Parrish,
    M. C. Schieber, R. Galvelis, P. Kraus, H. Kruse, R. Di Remigio,
    A. Alenaizan, A. M. James, S. Lehtola, J. P. Misiewicz, M. Scheurer,
    R. A. Shaw, J. B. Schriber, Y. Xie, Z. L. Glick, D. A. Sirianni,
    J. S. O'Brien, J. M. Waldrop, A. Kumar, E. G. Hohenstein,
    B. P. Pritchard, B. R. Brooks, H. F. Schaefer III, A. Yu. Sokolov,
    K. Patkowski, A. E. DePrince III, U. Bozkaya, R. A. King,
    F. A. Evangelista, J. M. Turney, T. D. Crawford, C. D. Sherrill,
    J. Chem. Phys. 152(18) 184108 (2020). https://doi.org/10.1063/5.0006002

                            Additional Code Authors
    E. T. Seidl, C. L. Janssen, E. F. Valeev, M. L. Leininger,
    J. F. Gonthier, R. M. Richard, H. R. McAlexander, M. Saitow, X. Wang,
    P. Verma, M. H. Lechner, A. Jiang, S. Behnle, A. G. Heide,
    M. F. Herbst, and D. L. Poole

             Previous Authors, Complete List of Code Contributors,
                       and Citations for Specific Modules
    https://github.com/psi4/psi4/blob/master/codemeta.json
    https://github.com/psi4/psi4/graphs/contributors
    http://psicode.org/psi4manual/master/introduction.html#citing-psifour

    -----------------------------------------------------------------------


    Psi4 started on: Monday, 13 May 2024 04:58PM

    Process ID: 73325
    Host:       Barrys-MacBook-Pro.local
    PSIDATADIR: /Users/blink/psi4conda/share/psi4
    Memory:     1.9 GiB
    Threads:    4
      Threads set to 4 by Python driver.

Scratch directory: /tmp/
gradient() will perform analytic gradient computation.
   => Libint2 <=

    Primary   basis highest AM E, G, H:  5, 4, 3
    Auxiliary basis highest AM E, G, H:  6, 5, 4
    Onebody   basis highest AM E, G, H:  6, 5, 4
    Solid Harmonics ordering:            Gaussian

*** tstart() called on Barrys-MacBook-Pro.local
*** at Mon May 13 19:15:21 2024

   => Loading Basis Set <=

    Name: STO-3G
    Role: ORBITAL
    Keyword: BASIS
    atoms 1-2, 6, 9       entry C          line    61 file /Users/blink/psi4conda/share/psi4/basis/sto-3g.gbs 
    atoms 3-5, 7-8, 10-14 entry H          line    19 file /Users/blink/psi4conda/share/psi4/basis/sto-3g.gbs 


         ---------------------------------------------------------
                                   SCF
               by Justin Turney, Rob Parrish, Andy Simmonett
                          and Daniel G. A. Smith
                              RHF Reference
                        4 Threads,   1907 MiB Core
         ---------------------------------------------------------

  ==> Geometry <==

    Molecular point group: c1
    Full point group: C1

    Geometry (in Angstrom), charge = 0, multiplicity = 1:

       Center              X                  Y                   Z               Mass       
    ------------   -----------------  -----------------  -----------------  -----------------
         C            0.831555501115    -0.120795624041    -1.676082922042    12.000000000000
         C            0.831555501115    -0.120795624041    -0.134992922042    12.000000000000
         H            0.831555501115     0.894841291930    -2.060623087597     1.007825032230
         H            1.711915296728    -0.629004127890    -2.058312929919     1.007825032230
         H           -0.047953759973    -0.628714416876    -2.060620659542     1.007825032230
         C           -0.404087315436     0.595013216574     0.454950700652    12.000000000000
         H            0.857250438342    -1.147827006891     0.224756882967     1.007825032230
         H            1.735273537895     0.367781541167     0.224809106800     1.007825032230
         C           -1.230794440430    -0.322103352531     1.377259984309    12.000000000000
         H           -0.078671879424     1.469824761030     1.015017179667     1.007825032230
         H           -1.034688694918     0.950936932577    -0.357777600096     1.007825032230
         H           -2.089175946832     0.210422218098     1.775994685703     1.007825032230
         H           -1.591865377324    -1.189992194111     0.833407650255     1.007825032230
         H           -0.629759915888    -0.671174393821     2.211699842224     1.007825032230

  Running in c1 symmetry.

  Rotational constants: A =      0.60650  B =      0.12535  C =      0.12493 [cm^-1]
  Rotational constants: A =  18182.43519  B =   3757.93378  C =   3745.29536 [MHz]
  Nuclear repulsion =  130.855842179571624

  Charge       = 0
  Multiplicity = 1
  Electrons    = 34
  Nalpha       = 17
  Nbeta        = 17

  ==> Algorithm <==

  SCF Algorithm Type is DIRECT.
  DIIS enabled.
  MOM disabled.
  Fractional occupation disabled.
  Guess Type is SAD.
  Energy threshold   = 1.00e-08
  Density threshold  = 1.00e-08
  Integral threshold = 1.00e-08

  ==> Primary Basis <==

  -AO BASIS SET INFORMATION:
    Name                   = STO-3G
    Blend                  = STO-3G
    Total number of shells = 22
    Number of primitives   = 66
    Number of AO           = 30
    Number of SO           = 30
    Maximum AM             = 1
    Spherical Harmonics    = TRUE

  -Contraction Scheme:
    Atom   Type   All Primitives // Shells:
   ------ ------ --------------------------
       1     C     6s 3p // 2s 1p 
       2     C     6s 3p // 2s 1p 
       3     H     3s // 1s 
       4     H     3s // 1s 
       5     H     3s // 1s 
       6     C     6s 3p // 2s 1p 
       7     H     3s // 1s 
       8     H     3s // 1s 
       9     C     6s 3p // 2s 1p 
      10     H     3s // 1s 
      11     H     3s // 1s 
      12     H     3s // 1s 
      13     H     3s // 1s 
      14     H     3s // 1s 

   => Loading Basis Set <=

    Name: (STO-3G AUX)
    Role: JKFIT
    Keyword: DF_BASIS_SCF
    atoms 1-2, 6, 9       entry C          line   198 file /Users/blink/psi4conda/share/psi4/basis/def2-universal-jkfit.gbs 
    atoms 3-5, 7-8, 10-14 entry H          line    18 file /Users/blink/psi4conda/share/psi4/basis/def2-universal-jkfit.gbs 

  Starting with a DF guess...

  ==> Integral Setup <==

  DFHelper Memory: AOs need 0.005 GiB; user supplied 1.397 GiB. 
  Using in-core AOs.

  ==> MemDFJK: Density-Fitted J/K Matrices <==

    J tasked:                   Yes
    K tasked:                   Yes
    wK tasked:                   No
    OpenMP threads:               4
    Memory [MiB]:              1430
    Algorithm:                 Core
    Schwarz Cutoff:           1E-08
    Mask sparsity (%):       0.6667
    Fitting Condition:        1E-10

   => Auxiliary Basis Set <=

  -AO BASIS SET INFORMATION:
    Name                   = (STO-3G AUX)
    Blend                  = DEF2-UNIVERSAL-JKFIT
    Total number of shells = 160
    Number of primitives   = 212
    Number of AO           = 556
    Number of SO           = 480
    Maximum AM             = 4
    Spherical Harmonics    = TRUE

  -Contraction Scheme:
    Atom   Type   All Primitives // Shells:
   ------ ------ --------------------------
       1     C     14s 10p 6d 2f 1g // 10s 8p 5d 1f 1g 
       2     C     14s 10p 6d 2f 1g // 10s 8p 5d 1f 1g 
       3     H     4s 2p 2d // 2s 2p 2d 
       4     H     4s 2p 2d // 2s 2p 2d 
       5     H     4s 2p 2d // 2s 2p 2d 
       6     C     14s 10p 6d 2f 1g // 10s 8p 5d 1f 1g 
       7     H     4s 2p 2d // 2s 2p 2d 
       8     H     4s 2p 2d // 2s 2p 2d 
       9     C     14s 10p 6d 2f 1g // 10s 8p 5d 1f 1g 
      10     H     4s 2p 2d // 2s 2p 2d 
      11     H     4s 2p 2d // 2s 2p 2d 
      12     H     4s 2p 2d // 2s 2p 2d 
      13     H     4s 2p 2d // 2s 2p 2d 
      14     H     4s 2p 2d // 2s 2p 2d 

  Minimum eigenvalue in the overlap matrix is 1.9998390318E-01.
  Reciprocal condition number of the overlap matrix is 7.7032696129E-02.
    Using symmetric orthogonalization.

  ==> Pre-Iterations <==

  SCF Guess: Superposition of Atomic Densities via on-the-fly atomic UHF (no occupation information).

   -------------------------
    Irrep   Nso     Nmo    
   -------------------------
     A         30      30 
   -------------------------
    Total      30      30
   -------------------------

  ==> Iterations <==

                           Total Energy        Delta E     RMS |[F,P]|

   @DF-RHF iter SAD:  -151.52197980740482   -1.51522e+02   0.00000e+00 
   @DF-RHF iter   1:  -155.45385139637281   -3.93187e+00   3.42185e-03 DIIS/ADIIS
   @DF-RHF iter   2:  -155.46112282662475   -7.27143e-03   6.74986e-04 DIIS/ADIIS
   @DF-RHF iter   3:  -155.46148498650777   -3.62160e-04   1.53820e-04 DIIS/ADIIS
   @DF-RHF iter   4:  -155.46150133839438   -1.63519e-05   8.20278e-06 DIIS
   @DF-RHF iter   5:  -155.46150138962560   -5.12312e-08   1.46036e-06 DIIS
   @DF-RHF iter   6:  -155.46150139093828   -1.31269e-09   1.56314e-07 DIIS
   @DF-RHF iter   7:  -155.46150139096036   -2.20837e-11   2.27448e-08 DIIS
   @DF-RHF iter   8:  -155.46150139096088   -5.11591e-13   2.76991e-09 DIIS

  DF guess converged.

  ==> DirectJK: Integral-Direct J/K Matrices <==

    J tasked:                  Yes
    K tasked:                  Yes
    wK tasked:                  No
    Integrals threads:           4
    Screening Type:           CSAM
    Screening Cutoff:        1E-08
    Incremental Fock:           No

   @RHF iter   9:  -155.46098833104958   -1.55461e+02   4.36845e-06 DIIS
   @RHF iter  10:  -155.46098833940468   -8.35510e-09   7.31162e-07 DIIS
   @RHF iter  11:  -155.46098833967241   -2.67733e-10   1.19872e-07 DIIS
   @RHF iter  12:  -155.46098833968412   -1.17097e-11   2.05042e-08 DIIS
   @RHF iter  13:  -155.46098833968435   -2.27374e-13   1.06082e-09 DIIS
  Energy and wave function converged.


  ==> Post-Iterations <==

    Orbital Energies [Eh]
    ---------------------

    Doubly Occupied:                                                      

       1A    -11.036737     2A    -11.036404     3A    -11.031710  
       4A    -11.031703     5A     -1.027561     6A     -0.941246  
       7A     -0.830082     8A     -0.756458     9A     -0.601839  
      10A     -0.569098    11A     -0.551767    12A     -0.522427  
      13A     -0.480426    14A     -0.479991    15A     -0.431768  
      16A     -0.424508    17A     -0.413842  

    Virtual:                                                              

      18A      0.601740    19A      0.612106    20A      0.639084  
      21A      0.678522    22A      0.690893    23A      0.714436  
      24A      0.743646    25A      0.754449    26A      0.778508  
      27A      0.788550    28A      0.790497    29A      0.824290  
      30A      0.851643  

    Final Occupation by Irrep:
              A 
    DOCC [    17 ]
    NA   [    17 ]
    NB   [    17 ]

  @RHF Final Energy:  -155.46098833968435

   => Energetics <=

    Nuclear Repulsion Energy =            130.8558421795716242
    One-Electron Energy =                -468.2985252935170593
    Two-Electron Energy =                 181.9816947742611148
    Total Energy =                       -155.4609883396843486

Computation Completed


Properties will be evaluated at   0.000000,   0.000000,   0.000000 [a0]

Properties computed using the SCF density matrix


 Multipole Moments:

 ------------------------------------------------------------------------------------
     Multipole            Electronic (a.u.)      Nuclear  (a.u.)        Total (a.u.)
 ------------------------------------------------------------------------------------

 L = 1.  Multiply by 2.5417464519 to convert [e a0] to [Debye]
 Dipole X            :          0.3196488           -0.3151030            0.0045458
 Dipole Y            :          0.3546559           -0.3495874            0.0050685
 Dipole Z            :          0.2393483           -0.2359132            0.0034351
 Magnitude           :                                                    0.0076259

 ------------------------------------------------------------------------------------

*** tstop() called on Barrys-MacBook-Pro.local at Mon May 13 19:15:23 2024
Module time:
	user time   =       3.31 seconds =       0.06 minutes
	system time =       0.08 seconds =       0.00 minutes
	total time  =          2 seconds =       0.03 minutes
Total time:
	user time   =     470.26 seconds =       7.84 minutes
	system time =       6.91 seconds =       0.12 minutes
	total time  =       8232 seconds =     137.20 minutes

*** tstart() called on Barrys-MacBook-Pro.local
*** at Mon May 13 19:15:23 2024


         ------------------------------------------------------------
                                   SCF GRAD                          
                          Rob Parrish, Justin Turney,                
                       Andy Simmonett, and Alex Sokolov              
         ------------------------------------------------------------

  ==> Geometry <==

    Molecular point group: c1
    Full point group: C1

    Geometry (in Angstrom), charge = 0, multiplicity = 1:

       Center              X                  Y                   Z               Mass       
    ------------   -----------------  -----------------  -----------------  -----------------
         C            0.831555501115    -0.120795624041    -1.676082922042    12.000000000000
         C            0.831555501115    -0.120795624041    -0.134992922042    12.000000000000
         H            0.831555501115     0.894841291930    -2.060623087597     1.007825032230
         H            1.711915296728    -0.629004127890    -2.058312929919     1.007825032230
         H           -0.047953759973    -0.628714416876    -2.060620659542     1.007825032230
         C           -0.404087315436     0.595013216574     0.454950700652    12.000000000000
         H            0.857250438342    -1.147827006891     0.224756882967     1.007825032230
         H            1.735273537895     0.367781541167     0.224809106800     1.007825032230
         C           -1.230794440430    -0.322103352531     1.377259984309    12.000000000000
         H           -0.078671879424     1.469824761030     1.015017179667     1.007825032230
         H           -1.034688694918     0.950936932577    -0.357777600096     1.007825032230
         H           -2.089175946832     0.210422218098     1.775994685703     1.007825032230
         H           -1.591865377324    -1.189992194111     0.833407650255     1.007825032230
         H           -0.629759915888    -0.671174393821     2.211699842224     1.007825032230

  Nuclear repulsion =  130.855842179571624

  ==> Basis Set <==

  -AO BASIS SET INFORMATION:
    Name                   = STO-3G
    Blend                  = STO-3G
    Total number of shells = 22
    Number of primitives   = 66
    Number of AO           = 30
    Number of SO           = 30
    Maximum AM             = 1
    Spherical Harmonics    = TRUE

  -Contraction Scheme:
    Atom   Type   All Primitives // Shells:
   ------ ------ --------------------------
       1     C     6s 3p // 2s 1p 
       2     C     6s 3p // 2s 1p 
       3     H     3s // 1s 
       4     H     3s // 1s 
       5     H     3s // 1s 
       6     C     6s 3p // 2s 1p 
       7     H     3s // 1s 
       8     H     3s // 1s 
       9     C     6s 3p // 2s 1p 
      10     H     3s // 1s 
      11     H     3s // 1s 
      12     H     3s // 1s 
      13     H     3s // 1s 
      14     H     3s // 1s 

  ==> DirectJKGrad: Integral-Direct SCF Gradients <==

    Gradient:                    1
    J tasked:                  Yes
    K tasked:                  Yes
    wK tasked:                  No
    Integrals threads:           4
    Schwarz Cutoff:          1E-08


  -Nuclear Gradient:
     Atom            X                  Y                   Z
    ------   -----------------  -----------------  -----------------
       1       -1.405038206411     0.442640750973     5.759514226287
       2       -4.263158844635     1.467697151981    -1.255979560864
       3       -0.182692554150    -1.741130001025     1.232730280656
       4       -1.631251303077     0.907199231746     1.106328394408
       5        1.360619290401     0.967359913173     1.283743550159
       6        1.701725858323    -4.309452263682    -0.662572404718
       7       -0.539330050730     2.072308504135    -0.673698008289
       8       -2.034720732147    -0.795304634460    -0.757082129139
       9        3.838951428080     2.257720539699    -3.936553521715
      10       -0.461865921054    -1.974057524800    -1.111520301107
      11        1.438669925111    -1.074621916873     1.347053822187
      12        1.776684816014    -0.745788443412    -0.997558063900
      13        1.072402955331     1.731002358873     0.537228505130
      14       -0.670996661057     0.794426333673    -1.871634789093


  -Core Hamiltonian Gradient:
     Atom            X                  Y                   Z
    ------   -----------------  -----------------  -----------------
       1        2.912850671656    -0.899235248191   -10.717542316199
       2        7.658996975446    -2.326539811107     1.862707813656
       3        0.350413303776     5.054768584373    -3.037720061544
       4        4.529256189159    -2.548097853291    -2.750389609326
       5       -4.128831959007    -2.732487663830    -3.150209741504
       6       -3.023085717322     7.471720626007     1.611041393280
       7        1.051940441568    -5.909697191824     2.029739420934
       8        5.528835309907     2.416149122295     2.138102425120
       9       -7.287633256979    -3.955866420905     7.440157048366
      10        1.501662187929     5.382247005935     3.122962591445
      11       -3.906066244433     2.743024176248    -4.167544206007
      12       -4.783737527102     2.265264873292     2.560069881876
      13       -2.693356989337    -4.833469389065    -1.954904213096
      14        2.288756614739    -2.127780809937     5.013529572999


  -Overlap Gradient:
     Atom            X                  Y                   Z
    ------   -----------------  -----------------  -----------------
       1        0.000164032474    -0.000047220602    -0.046252375998
       2        0.041116632050    -0.024302019014     0.026124511566
       3        0.000304837517    -0.162474950153     0.062902900533
       4       -0.140720469894     0.081241101841     0.062729194869
       5        0.140849151088     0.080983868115     0.062930689310
       6       -0.016895596317     0.051103774505    -0.008073562870
       7       -0.003543976716     0.163240957492    -0.059009601174
       8       -0.144085012100    -0.077576871455    -0.058434770943
       9       -0.024937297806    -0.027385117197     0.027767613368
      10       -0.052214066214    -0.140159523451    -0.088448392044
      11        0.099080402723    -0.057241250693     0.130575084000
      12        0.138085582458    -0.084143884510    -0.064709533429
      13        0.058273502294     0.139840527389     0.086060538656
      14       -0.095477721557     0.056920607732    -0.134162295842


  -Coulomb Gradient:
     Atom            X                  Y                   Z
    ------   -----------------  -----------------  -----------------
       1       -1.509351024024     0.457494523186     4.923979429890
       2       -3.369301037892     0.842186502432    -0.584719695125
       3       -0.167835019108    -3.456626436336     1.860615672842
       4       -3.022101046650     1.712530783987     1.699180349056
       5        2.891968959360     1.836713000258     1.922065068783
       6        1.312457958636    -3.126065332428    -0.957371050204
       7       -0.518239534874     3.980389858245    -1.406245535514
       8       -3.620759390002    -1.687331752530    -1.431577251267
       9        3.431512602085     1.676518406495    -3.483465055897
      10       -1.083894548820    -3.531096567596    -2.088674288603
      11        2.555725162299    -1.719656400254     2.932617363637
      12        3.128718756960    -1.593809046999    -1.619465232045
      13        1.672650078909     3.225461593284     1.493383985090
      14       -1.701551916878     1.383290868258    -3.260323760645


  -Exchange Gradient:
     Atom            X                  Y                   Z
    ------   -----------------  -----------------  -----------------
       1       -0.000881499132     0.000243993238     0.080629979026
       2       -0.072566274209     0.043455991896    -0.046084621429
       3       -0.000216486748     0.305424014451    -0.118683324616
       4        0.264693305255    -0.152816097995    -0.117427444620
       5       -0.264526591887    -0.152538295976    -0.118770464467
       6        0.030249171502    -0.090242861412     0.014591287835
       7        0.007381155341    -0.306666151902     0.110847143792
       8        0.270247021412     0.145861270739     0.110240666757
       9        0.043797504080     0.047240175646    -0.048646629654
      10        0.098562051978     0.263221614678     0.165715753686
      11       -0.186336250531     0.108106835769    -0.244902969025
      12       -0.259436881446     0.158615445951     0.121376934360
      13       -0.110106402426    -0.262925298257    -0.161538786212
      14        0.179140176811    -0.106980636828     0.252652474566


  -Total Gradient:
     Atom            X                  Y                   Z
    ------   -----------------  -----------------  -----------------
       1       -0.002256025437     0.001096798605     0.000328943006
       2       -0.004912549240     0.002497816188     0.002048447803
       3       -0.000025918713    -0.000038788690    -0.000154532129
       4       -0.000123325208     0.000057166288     0.000420884386
       5        0.000078849955     0.000030821739    -0.000240897719
       6        0.004451674822    -0.002936057010    -0.002384336676
       7       -0.001791965410    -0.000424023854     0.001633419749
       8       -0.000482802930     0.001797134589     0.001248940528
       9        0.001690979460    -0.001772416262    -0.000740545532
      10        0.002249703820     0.000155004766     0.000035363377
      11        0.001072995169    -0.000388555802    -0.002200905208
      12        0.000314746884     0.000138944322    -0.000286013139
      13       -0.000136855229    -0.000090207777     0.000230029567
      14       -0.000129507943    -0.000123637101     0.000061201985


*** tstop() called on Barrys-MacBook-Pro.local at Mon May 13 19:15:23 2024
Module time:
	user time   =       0.55 seconds =       0.01 minutes
	system time =       0.01 seconds =       0.00 minutes
	total time  =          0 seconds =       0.00 minutes
Total time:
	user time   =     470.82 seconds =       7.85 minutes
	system time =       6.92 seconds =       0.12 minutes
	total time  =       8232 seconds =     137.20 minutes

    			-----------------------------------------

    			 OPTKING 3.0: for geometry optimizations 

    			     By R.A. King, Bethel University     

    			        with contributions from          

    			    A.V. Copan, J. Cayton, A. Heide      

    			-----------------------------------------

    
	                            ===> Fragment 1 <== 

	 Z (Atomic Numbers)          Masses                          Geom                  
	       6.000000            12.000000          1.57141216 -0.22827065 -3.16733769   
	       6.000000            12.000000          1.57141216 -0.22827065 -0.25509965   
	       1.000000             1.007825          1.57141216  1.69100497 -3.89401328   
	       1.000000             1.007825          3.23505106 -1.18864553 -3.88964772   
	       1.000000             1.007825         -0.09061947 -1.18809806 -3.89400869   
	       6.000000            12.000000         -0.76361436  1.12441202  0.85973222   
	       1.000000             1.007825          1.61996855 -2.16907868  0.42472895   
	       1.000000             1.007825          3.27919174  0.69500639  0.42482764   
	       6.000000            12.000000         -2.32586441 -0.60868712  2.60264417   
	       1.000000             1.007825         -0.14866831  2.77756625  1.91810448   
	       1.000000             1.007825         -1.95527826  1.79701037 -0.67610168   
	       1.000000             1.007825         -3.94797037  0.39764036  3.35614356   
	       1.000000             1.007825         -3.00818959 -2.24875934  1.57491221   
	       1.000000             1.007825         -1.19007377 -1.26833579  4.17950697   

	 - Coordinate -           - BOHR/RAD -       - ANG/DEG -
	 R(1,2)           =         2.912238           1.541090
	 R(1,3)           =         2.052237           1.085997
	 R(1,4)           =         2.052254           1.086006
	 R(1,5)           =         2.052235           1.085996
	 R(2,6)           =         2.919752           1.545066
	 R(2,7)           =         2.057003           1.088519
	 R(2,8)           =         2.057001           1.088518
	 R(6,9)           =         2.912387           1.541169
	 R(6,10)          =         2.056995           1.088515
	 R(6,11)          =         2.056997           1.088516
	 R(9,12)          =         2.052239           1.085998
	 R(9,13)          =         2.052227           1.085992
	 R(9,14)          =         2.052231           1.085994
	 B(1,2,6)         =         1.962566         112.446725
	 B(1,2,7)         =         1.907624         109.298807
	 B(1,2,8)         =         1.907675         109.301738
	 B(2,1,3)         =         1.932737         110.737654
	 B(2,1,4)         =         1.930460         110.607207
	 B(2,1,5)         =         1.932735         110.737537
	 B(2,6,9)         =         1.962539         112.445221
	 B(2,6,10)        =         1.906788         109.250918
	 B(2,6,11)        =         1.906787         109.250874
	 B(3,1,4)         =         1.889165         108.241169
	 B(3,1,5)         =         1.888113         108.180910
	 B(4,1,5)         =         1.889166         108.241266
	 B(6,2,7)         =         1.906892         109.256891
	 B(6,2,8)         =         1.906897         109.257131
	 B(6,9,12)        =         1.930410         110.604358
	 B(6,9,13)        =         1.932875         110.745577
	 B(6,9,14)        =         1.932884         110.746117
	 B(7,2,8)         =         1.869887         107.136637
	 B(9,6,10)        =         1.907839         109.311100
	 B(9,6,11)        =         1.907784         109.308000
	 B(10,6,11)       =         1.869799         107.131610
	 B(12,9,13)       =         1.889094         108.237132
	 B(12,9,14)       =         1.889091         108.236937
	 B(13,9,14)       =         1.888010         108.175020
	*D(1,2,6,9)       =         2.129302         122.000000
	 D(1,2,6,10)      =        -2.032414        -116.448765
	 D(1,2,6,11)      =         0.007902           0.452731
	 D(2,6,9,12)      =         3.139867         179.901135
	 D(2,6,9,13)      =        -1.049011         -60.103908
	 D(2,6,9,14)      =         1.045558          59.906070
	 D(3,1,2,6)       =         1.045736          59.916254
	 D(3,1,2,7)       =        -3.116579        -178.566836
	 D(3,1,2,8)       =        -1.075175         -61.603010
	 D(4,1,2,6)       =         3.140074         179.912961
	 D(4,1,2,7)       =        -1.022242         -58.570129
	 D(4,1,2,8)       =         1.019162          58.393697
	 D(5,1,2,6)       =        -1.048773         -60.090287
	 D(5,1,2,7)       =         1.072097          61.426623
	 D(5,1,2,8)       =         3.113501         178.390449
	 D(7,2,6,9)       =         0.008014           0.459193
	 D(7,2,6,10)      =         2.129484         122.010428
	 D(7,2,6,11)      =        -2.113386        -121.088076
	 D(8,2,6,9)       =        -2.032529        -116.455306
	 D(8,2,6,10)      =         0.088941           5.095929
	 D(8,2,6,11)      =         2.129257         121.997425
	 D(10,6,9,12)     =         1.018997          58.384210
	 D(10,6,9,13)     =         3.113304         178.379167
	 D(10,6,9,14)     =        -1.075312         -61.610855
	 D(11,6,9,12)     =        -1.022487         -58.584164
	 D(11,6,9,13)     =         1.071821          61.410793
	 D(11,6,9,14)     =        -3.116796        -178.579229


	        --- Internal Coordinate Step in ANG or DEG, aJ/ANG or AJ/DEG ---
	-------------------------------------------------------------------------------
	           Coordinate      Previous         Force          Change          New 
	           ----------      --------        ------          ------        ------
	               R(1,2)       1.54109        0.00292        0.00066       1.54175
	               R(1,3)       1.08600       -0.00015       -0.00003       1.08597
	               R(1,4)       1.08601        0.00226        0.00041       1.08642
	               R(1,5)       1.08600       -0.00006       -0.00001       1.08599
	               R(2,6)       1.54507        0.09846        0.02245       1.56751
	               R(2,7)       1.08852       -0.00740       -0.00135       1.08716
	               R(2,8)       1.08852       -0.00674       -0.00123       1.08728
	               R(6,9)       1.54117        0.00226        0.00051       1.54168
	              R(6,10)       1.08852       -0.00672       -0.00123       1.08729
	              R(6,11)       1.08852       -0.00737       -0.00135       1.08717
	              R(9,12)       1.08600        0.00235        0.00043       1.08643
	              R(9,13)       1.08599       -0.00002       -0.00000       1.08599
	              R(9,14)       1.08599       -0.00012       -0.00002       1.08597
	             B(1,2,6)     112.44673        0.00020        0.87580     113.32252
	             B(1,2,7)     109.29881       -0.00014       -0.97873     108.32008
	             B(1,2,8)     109.30174       -0.00013       -0.73281     108.56893
	             B(2,1,3)     110.73765       -0.00002       -0.11000     110.62765
	             B(2,1,4)     110.60721        0.00005        0.25745     110.86466
	             B(2,1,5)     110.73754       -0.00003       -0.17097     110.56657
	             B(2,6,9)     112.44522        0.00020        0.87804     113.32326
	            B(2,6,10)     109.25092        0.00003        0.74648     109.99740
	            B(2,6,11)     109.25087        0.00005        0.75139     110.00226
	             B(3,1,4)     108.24117       -0.00001       -0.00498     108.23619
	             B(3,1,5)     108.18091        0.00002        0.01568     108.19659
	             B(4,1,5)     108.24127       -0.00000        0.01354     108.25481
	             B(6,2,7)     109.25689        0.00005        0.74268     109.99957
	             B(6,2,8)     109.25713        0.00003        0.73664     109.99377
	            B(6,9,12)     110.60436        0.00005        0.26257     110.86693
	            B(6,9,13)     110.74558       -0.00003       -0.18331     110.56227
	            B(6,9,14)     110.74612       -0.00002       -0.12290     110.62322
	             B(7,2,8)     107.13664       -0.00001       -0.75425     106.38239
	            B(9,6,10)     109.31110       -0.00013       -0.74681     108.56429
	            B(9,6,11)     109.30800       -0.00014       -0.99258     108.31542
	           B(10,6,11)     107.13161       -0.00001       -0.74708     106.38453
	           B(12,9,13)     108.23713       -0.00000        0.01985     108.25698
	           B(12,9,14)     108.23694       -0.00001        0.00149     108.23843
	           B(13,9,14)     108.17502        0.00002        0.02390     108.19892
	          *D(1,2,6,9)     122.00000        0.00000       -0.00037     121.99963
	          D(1,2,6,10)    -116.44877       -0.00001        0.17364    -116.27513
	          D(1,2,6,11)       0.45273        0.00002        0.13922       0.59195
	          D(2,6,9,12)     179.90114       -0.00000        0.17322     180.07436
	          D(2,6,9,13)     -60.10391        0.00000        0.24979     -59.85412
	          D(2,6,9,14)      59.90607       -0.00001        0.07992      59.98599
	           D(3,1,2,6)      59.91625       -0.00001        0.07134      59.98759
	           D(3,1,2,7)    -178.56684        0.00008        0.90390    -177.66293
	           D(3,1,2,8)     -61.60301       -0.00009       -0.93131     -62.53432
	           D(4,1,2,6)     179.91296       -0.00000        0.16163     180.07459
	           D(4,1,2,7)     -58.57013        0.00009        0.99419     -57.57594
	           D(4,1,2,8)      58.39370       -0.00008       -0.84103      57.55267
	           D(5,1,2,6)     -60.09029        0.00000        0.23501     -59.85527
	           D(5,1,2,7)      61.42662        0.00009        1.06758      62.49420
	           D(5,1,2,8)     178.39045       -0.00008       -0.76764     177.62281
	           D(7,2,6,9)       0.45919        0.00002        0.12922       0.58841
	          D(7,2,6,10)     122.01043        0.00001        0.30323     122.31366
	          D(7,2,6,11)    -121.08808        0.00004        0.26881    -120.81926
	           D(8,2,6,9)    -116.45531       -0.00001        0.18299    -116.27231
	          D(8,2,6,10)       5.09593       -0.00002        0.35700       5.45293
	          D(8,2,6,11)     121.99743        0.00001        0.32259     122.32001
	         D(10,6,9,12)      58.38421       -0.00008       -0.83356      57.55065
	         D(10,6,9,13)     178.37917       -0.00008       -0.75699     177.62218
	         D(10,6,9,14)     -61.61086       -0.00009       -0.92686     -62.53771
	         D(11,6,9,12)     -58.58416        0.00009        1.00856     -57.57560
	         D(11,6,9,13)      61.41079        0.00009        1.08513      62.49593
	         D(11,6,9,14)    -178.57923        0.00008        0.91526    -177.66396
	-------------------------------------------------------------------------------

	                                 ==> Convergence Check <==                                  
    
	Measures of convergence in internal coordinates in au.
    
	Criteria marked as inactive (o), active & met (*), and active & unmet ( ).

	----------------------------------------------------------------------------------------------
	   Step    Total Energy     Delta E     Max Force     RMS Force      Max Disp      RMS Disp   
	----------------------------------------------------------------------------------------------
	  Convergence Criteria     1.00e-06 *    3.00e-04 *             o    1.20e-03 *             o
	----------------------------------------------------------------------------------------------
	     1    -155.46098834   -1.55e+02      1.20e-02      1.72e-03 o    4.24e-02      1.09e-02 o  ~
	----------------------------------------------------------------------------------------------

Next Geometry in Ang 
	Fragment 1 (Ang)

	    C   0.8481286804  -0.1238845430  -1.6887777936
	    C   0.8389261117  -0.1222859818  -0.1470584873
	    H   0.8467414633   0.8920590650  -2.0724263630
	    H   1.7306503630  -0.6300256502  -2.0699325183
	    H  -0.0296847176  -0.6334355404  -2.0749978140
	    C  -0.4137792506   0.5938299299   0.4653222978
	    H   0.8826954831  -1.1529760784   0.1960010958
	    H   1.7496300026   0.3567459053   0.2041273293
	    C  -1.2447189502  -0.3160080331   1.3918763831
	    H  -0.1026539291   1.4700970090   1.0288344832
	    H  -1.0615409570   0.9546116934  -0.3297703416
	    H  -2.1015940646   0.2185750846   1.7922585665
	    H  -1.6082334625  -1.1833661982   0.8488129887
	    H  -0.6424583265  -0.6655234411   2.2252160847


    Structure for next step:
    Molecular point group: c1
    Full point group: C1

    Geometry (in Angstrom), charge = 0, multiplicity = 1:

    C       
    C             1    1.541748
    H             1    1.085969      2  110.627655
    H             1    1.086417      2  110.864661      3  120.086992
    H             1    1.085985      2  110.566566      3 -119.842868
    C             2    1.567515      1  113.322523      3   59.987595
    H             2    1.087165      1  108.320082      6  122.349472
    H             2    1.087283      1  108.568926      6 -122.521918
    C             6    1.541677      2  113.323263      1    dihedral
    H             6    1.087285      2  109.997401      9  121.725245
    H             6    1.087167      2  110.002259      9 -121.407675
    H             9    1.086425      6  110.866928     10   57.550652
    H             9    1.085988      6  110.562269     12  120.071528
    H             9    1.085971      6  110.623219     12 -120.088365

    dihedral  =  121.9996267204


Scratch directory: /tmp/
gradient() will perform analytic gradient computation.
   => Libint2 <=

    Primary   basis highest AM E, G, H:  5, 4, 3
    Auxiliary basis highest AM E, G, H:  6, 5, 4
    Onebody   basis highest AM E, G, H:  6, 5, 4
    Solid Harmonics ordering:            Gaussian

*** tstart() called on Barrys-MacBook-Pro.local
*** at Mon May 13 19:15:23 2024

   => Loading Basis Set <=

    Name: STO-3G
    Role: ORBITAL
    Keyword: BASIS
    atoms 1-2, 6, 9       entry C          line    61 file /Users/blink/psi4conda/share/psi4/basis/sto-3g.gbs 
    atoms 3-5, 7-8, 10-14 entry H          line    19 file /Users/blink/psi4conda/share/psi4/basis/sto-3g.gbs 


         ---------------------------------------------------------
                                   SCF
               by Justin Turney, Rob Parrish, Andy Simmonett
                          and Daniel G. A. Smith
                              RHF Reference
                        4 Threads,   1907 MiB Core
         ---------------------------------------------------------

  ==> Geometry <==

    Molecular point group: c1
    Full point group: C1

    Geometry (in Angstrom), charge = 0, multiplicity = 1:

       Center              X                  Y                   Z               Mass       
    ------------   -----------------  -----------------  -----------------  -----------------
         C            0.837523600945    -0.125222177240    -1.693980427604    12.000000000000
         C            0.837523600945    -0.125222177240    -0.152232827569    12.000000000000
         H            0.837523600945     0.891125307046    -2.076560294986     1.007825032230
         H            1.715918941587    -0.634143736551    -2.080920651633     1.007825032230
         H           -0.044415850474    -0.631190328845    -2.075482089960     1.007825032230
         C           -0.408907424236     0.594764980586     0.468356522717    12.000000000000
         H            0.879609252087    -1.156426159755     0.189490532672     1.007825032230
         H            1.752033342580     0.350145368454     0.194007309384     1.007825032230
         C           -1.237591689348    -0.313046065276     1.398910051506    12.000000000000
         H           -0.091257902643     1.469305709811     1.030909842091     1.007825032230
         H           -1.060090886349     0.958725292723    -0.322481010740     1.007825032230
         H           -2.090123487981     0.224204323005     1.804953789034     1.007825032230
         H           -1.607474914412    -1.178510369681     0.857127091949     1.007825032230
         H           -0.631639291988    -0.665616244102     2.228277219088     1.007825032230

  Running in c1 symmetry.

  Rotational constants: A =      0.60942  B =      0.12284  C =      0.12233 [cm^-1]
  Rotational constants: A =  18269.99369  B =   3682.55386  C =   3667.25620 [MHz]
  Nuclear repulsion =  130.179060016404406

  Charge       = 0
  Multiplicity = 1
  Electrons    = 34
  Nalpha       = 17
  Nbeta        = 17

  ==> Algorithm <==

  SCF Algorithm Type is DIRECT.
  DIIS enabled.
  MOM disabled.
  Fractional occupation disabled.
  Guess Type is READ.
  Energy threshold   = 1.00e-08
  Density threshold  = 1.00e-08
  Integral threshold = 1.00e-08

  ==> Primary Basis <==

  -AO BASIS SET INFORMATION:
    Name                   = STO-3G
    Blend                  = STO-3G
    Total number of shells = 22
    Number of primitives   = 66
    Number of AO           = 30
    Number of SO           = 30
    Maximum AM             = 1
    Spherical Harmonics    = TRUE

  -Contraction Scheme:
    Atom   Type   All Primitives // Shells:
   ------ ------ --------------------------
       1     C     6s 3p // 2s 1p 
       2     C     6s 3p // 2s 1p 
       3     H     3s // 1s 
       4     H     3s // 1s 
       5     H     3s // 1s 
       6     C     6s 3p // 2s 1p 
       7     H     3s // 1s 
       8     H     3s // 1s 
       9     C     6s 3p // 2s 1p 
      10     H     3s // 1s 
      11     H     3s // 1s 
      12     H     3s // 1s 
      13     H     3s // 1s 
      14     H     3s // 1s 

   => Loading Basis Set <=

    Name: (STO-3G AUX)
    Role: JKFIT
    Keyword: DF_BASIS_SCF
    atoms 1-2, 6, 9       entry C          line   198 file /Users/blink/psi4conda/share/psi4/basis/def2-universal-jkfit.gbs 
    atoms 3-5, 7-8, 10-14 entry H          line    18 file /Users/blink/psi4conda/share/psi4/basis/def2-universal-jkfit.gbs 

   => Loading Basis Set <=

    Name: STO-3G
    Role: ORBITAL
    Keyword: BASIS
    atoms 1-2, 6, 9       entry C          line    61 file /Users/blink/psi4conda/share/psi4/basis/sto-3g.gbs 
    atoms 3-5, 7-8, 10-14 entry H          line    19 file /Users/blink/psi4conda/share/psi4/basis/sto-3g.gbs 

  Reading orbitals from file /tmp/butane_TS_Start_120.default.73325.180.npy, no projection.

  Starting with a DF guess...

  ==> Integral Setup <==

  DFHelper Memory: AOs need 0.005 GiB; user supplied 1.397 GiB. 
  Using in-core AOs.

  ==> MemDFJK: Density-Fitted J/K Matrices <==

    J tasked:                   Yes
    K tasked:                   Yes
    wK tasked:                   No
    OpenMP threads:               4
    Memory [MiB]:              1430
    Algorithm:                 Core
    Schwarz Cutoff:           1E-08
    Mask sparsity (%):       0.6667
    Fitting Condition:        1E-10

   => Auxiliary Basis Set <=

  -AO BASIS SET INFORMATION:
    Name                   = (STO-3G AUX)
    Blend                  = DEF2-UNIVERSAL-JKFIT
    Total number of shells = 160
    Number of primitives   = 212
    Number of AO           = 556
    Number of SO           = 480
    Maximum AM             = 4
    Spherical Harmonics    = TRUE

  -Contraction Scheme:
    Atom   Type   All Primitives // Shells:
   ------ ------ --------------------------
       1     C     14s 10p 6d 2f 1g // 10s 8p 5d 1f 1g 
       2     C     14s 10p 6d 2f 1g // 10s 8p 5d 1f 1g 
       3     H     4s 2p 2d // 2s 2p 2d 
       4     H     4s 2p 2d // 2s 2p 2d 
       5     H     4s 2p 2d // 2s 2p 2d 
       6     C     14s 10p 6d 2f 1g // 10s 8p 5d 1f 1g 
       7     H     4s 2p 2d // 2s 2p 2d 
       8     H     4s 2p 2d // 2s 2p 2d 
       9     C     14s 10p 6d 2f 1g // 10s 8p 5d 1f 1g 
      10     H     4s 2p 2d // 2s 2p 2d 
      11     H     4s 2p 2d // 2s 2p 2d 
      12     H     4s 2p 2d // 2s 2p 2d 
      13     H     4s 2p 2d // 2s 2p 2d 
      14     H     4s 2p 2d // 2s 2p 2d 

  Minimum eigenvalue in the overlap matrix is 2.0196925564E-01.
  Reciprocal condition number of the overlap matrix is 7.8290334068E-02.
    Using symmetric orthogonalization.

  ==> Pre-Iterations <==

  SCF Guess: Orbitals guess was supplied from a previous computation.

   -------------------------------------------------------
    Irrep   Nso     Nmo     Nalpha   Nbeta   Ndocc  Nsocc
   -------------------------------------------------------
     A         30      30      17      17      17       0
   -------------------------------------------------------
    Total      30      30      17      17      17       0
   -------------------------------------------------------

  ==> Iterations <==

                           Total Energy        Delta E     RMS |[F,P]|

   @DF-RHF iter   0:  -155.45755940370600   -1.55458e+02   1.40843e-03 
   @DF-RHF iter   1:  -155.46157852536550   -4.01912e-03   1.37897e-04 DIIS/ADIIS
   @DF-RHF iter   2:  -155.46159402037480   -1.54950e-05   3.85056e-05 DIIS
   @DF-RHF iter   3:  -155.46159531774373   -1.29737e-06   1.01227e-05 DIIS
   @DF-RHF iter   4:  -155.46159541290484   -9.51611e-08   6.81181e-07 DIIS
   @DF-RHF iter   5:  -155.46159541333401   -4.29168e-10   1.48406e-07 DIIS
   @DF-RHF iter   6:  -155.46159541335442   -2.04068e-11   2.61478e-08 DIIS
   @DF-RHF iter   7:  -155.46159541335518   -7.67386e-13   3.26996e-09 DIIS

  DF guess converged.

  ==> DirectJK: Integral-Direct J/K Matrices <==

    J tasked:                  Yes
    K tasked:                  Yes
    wK tasked:                  No
    Integrals threads:           4
    Screening Type:           CSAM
    Screening Cutoff:        1E-08
    Incremental Fock:           No

   @RHF iter   8:  -155.46108087130904   -1.55461e+02   4.35933e-06 DIIS
   @RHF iter   9:  -155.46108087964114   -8.33211e-09   7.26499e-07 DIIS
   @RHF iter  10:  -155.46108087990623   -2.65089e-10   1.19360e-07 DIIS
   @RHF iter  11:  -155.46108087991772   -1.14824e-11   2.05330e-08 DIIS
   @RHF iter  12:  -155.46108087991817   -4.54747e-13   1.10232e-09 DIIS
  Energy and wave function converged.


  ==> Post-Iterations <==

    Orbital Energies [Eh]
    ---------------------

    Doubly Occupied:                                                      

       1A    -11.037773     2A    -11.037401     3A    -11.031759  
       4A    -11.031755     5A     -1.023180     6A     -0.942761  
       7A     -0.828233     8A     -0.757876     9A     -0.599135  
      10A     -0.567870    11A     -0.552395    12A     -0.523324  
      13A     -0.478725    14A     -0.478264    15A     -0.430740  
      16A     -0.425587    17A     -0.414831  

    Virtual:                                                              

      18A      0.594546    19A      0.614292    20A      0.634052  
      21A      0.683951    22A      0.691100    23A      0.712582  
      24A      0.744161    25A      0.748866    26A      0.772321  
      27A      0.788484    28A      0.792826    29A      0.821396  
      30A      0.846489  

    Final Occupation by Irrep:
              A 
    DOCC [    17 ]
    NA   [    17 ]
    NB   [    17 ]

  @RHF Final Energy:  -155.46108087991817

   => Energetics <=

    Nuclear Repulsion Energy =            130.1790600164044065
    One-Electron Energy =                -466.9570628257732778
    Two-Electron Energy =                 181.3169219294507286
    Total Energy =                       -155.4610808799181711

Computation Completed


Properties will be evaluated at   0.000000,   0.000000,   0.000000 [a0]

Properties computed using the SCF density matrix


 Multipole Moments:

 ------------------------------------------------------------------------------------
     Multipole            Electronic (a.u.)      Nuclear  (a.u.)        Total (a.u.)
 ------------------------------------------------------------------------------------

 L = 1.  Multiply by 2.5417464519 to convert [e a0] to [Debye]
 Dipole X            :          0.3231570           -0.3186620            0.0044950
 Dipole Y            :          0.3540042           -0.3490957            0.0049086
 Dipole Z            :          0.2382996           -0.2350032            0.0032963
 Magnitude           :                                                    0.0074273

 ------------------------------------------------------------------------------------

*** tstop() called on Barrys-MacBook-Pro.local at Mon May 13 19:15:24 2024
Module time:
	user time   =       2.97 seconds =       0.05 minutes
	system time =       0.06 seconds =       0.00 minutes
	total time  =          1 seconds =       0.02 minutes
Total time:
	user time   =     475.10 seconds =       7.92 minutes
	system time =       7.00 seconds =       0.12 minutes
	total time  =       8233 seconds =     137.22 minutes

*** tstart() called on Barrys-MacBook-Pro.local
*** at Mon May 13 19:15:24 2024


         ------------------------------------------------------------
                                   SCF GRAD                          
                          Rob Parrish, Justin Turney,                
                       Andy Simmonett, and Alex Sokolov              
         ------------------------------------------------------------

  ==> Geometry <==

    Molecular point group: c1
    Full point group: C1

    Geometry (in Angstrom), charge = 0, multiplicity = 1:

       Center              X                  Y                   Z               Mass       
    ------------   -----------------  -----------------  -----------------  -----------------
         C            0.837523600945    -0.125222177240    -1.693980427604    12.000000000000
         C            0.837523600945    -0.125222177240    -0.152232827569    12.000000000000
         H            0.837523600945     0.891125307046    -2.076560294986     1.007825032230
         H            1.715918941587    -0.634143736551    -2.080920651633     1.007825032230
         H           -0.044415850474    -0.631190328845    -2.075482089960     1.007825032230
         C           -0.408907424236     0.594764980586     0.468356522717    12.000000000000
         H            0.879609252087    -1.156426159755     0.189490532672     1.007825032230
         H            1.752033342580     0.350145368454     0.194007309384     1.007825032230
         C           -1.237591689348    -0.313046065276     1.398910051506    12.000000000000
         H           -0.091257902643     1.469305709811     1.030909842091     1.007825032230
         H           -1.060090886349     0.958725292723    -0.322481010740     1.007825032230
         H           -2.090123487981     0.224204323005     1.804953789034     1.007825032230
         H           -1.607474914412    -1.178510369681     0.857127091949     1.007825032230
         H           -0.631639291988    -0.665616244102     2.228277219088     1.007825032230

  Nuclear repulsion =  130.179060016404406

  ==> Basis Set <==

  -AO BASIS SET INFORMATION:
    Name                   = STO-3G
    Blend                  = STO-3G
    Total number of shells = 22
    Number of primitives   = 66
    Number of AO           = 30
    Number of SO           = 30
    Maximum AM             = 1
    Spherical Harmonics    = TRUE

  -Contraction Scheme:
    Atom   Type   All Primitives // Shells:
   ------ ------ --------------------------
       1     C     6s 3p // 2s 1p 
       2     C     6s 3p // 2s 1p 
       3     H     3s // 1s 
       4     H     3s // 1s 
       5     H     3s // 1s 
       6     C     6s 3p // 2s 1p 
       7     H     3s // 1s 
       8     H     3s // 1s 
       9     C     6s 3p // 2s 1p 
      10     H     3s // 1s 
      11     H     3s // 1s 
      12     H     3s // 1s 
      13     H     3s // 1s 
      14     H     3s // 1s 

  ==> DirectJKGrad: Integral-Direct SCF Gradients <==

    Gradient:                    1
    J tasked:                  Yes
    K tasked:                  Yes
    wK tasked:                  No
    Integrals threads:           4
    Schwarz Cutoff:          1E-08


  -Nuclear Gradient:
     Atom            X                  Y                   Z
    ------   -----------------  -----------------  -----------------
       1       -1.360202542027     0.425686235938     5.711714905332
       2       -4.053493080339     1.374575703417    -1.283512596516
       3       -0.177435326948    -1.740716921855     1.223299425902
       4       -1.621415106476     0.905512731982     1.109987295389
       5        1.367447538921     0.960353408400     1.271955413467
       6        1.506285217867    -4.164866537023    -0.594182146804
       7       -0.545224023211     2.073145630644    -0.650970427620
       8       -2.040914995791    -0.776345082980    -0.736595707983
       9        3.779306225721     2.224186111342    -3.928441061805
      10       -0.462371626674    -1.966117388614    -1.109629129602
      11        1.453349875067    -1.078296826015     1.320634911382
      12        1.759306923337    -0.754409130847    -1.008329032957
      13        1.079709843224     1.720591061790     0.532852923310
      14       -0.684348922671     0.796701003824    -1.858784771495


  -Core Hamiltonian Gradient:
     Atom            X                  Y                   Z
    ------   -----------------  -----------------  -----------------
       1        2.921704149832    -0.928211043083   -10.637013134246
       2        7.285879625834    -2.146081666455     1.909321879151
       3        0.341682584317     5.048682642101    -3.004625664201
       4        4.505292923732    -2.544729017255    -2.783208991790
       5       -4.140472461536    -2.713117187014    -3.109200847613
       6       -2.661428950493     7.210810120979     1.499167536906
       7        1.175077512549    -5.912030879420     1.884415369988
       8        5.593650826823     2.289030072218     2.022348718603
       9       -7.252000859017    -3.814312902908     7.445046921168
      10        1.397623710222     5.370391468553     3.134415752757
      11       -4.026856832280     2.788085511986    -3.986897319991
      12       -4.749609322006     2.277160727338     2.603218223822
      13       -2.714648831163    -4.797013597307    -1.947001407202
      14        2.324105923185    -2.128664249734     4.970012962649


  -Overlap Gradient:
     Atom            X                  Y                   Z
    ------   -----------------  -----------------  -----------------
       1       -0.002762045989     0.001676943930    -0.045750595836
       2        0.045905110194    -0.028036844644     0.023227875517
       3        0.000243952479    -0.162466389930     0.062385994936
       4       -0.140590224919     0.081465337231     0.064065312588
       5        0.141133391281     0.080665967687     0.062188289054
       6       -0.022379686153     0.053844107711    -0.005841236191
       7       -0.008820887979     0.164327072296    -0.054261074255
       8       -0.147477706895    -0.073482225641    -0.054775603291
       9       -0.022481327041    -0.029363165716     0.027104859200
      10       -0.048110872656    -0.140800176127    -0.089496997266
      11        0.104454365743    -0.059566214684     0.124762583043
      12        0.137607437850    -0.084737284761    -0.066269920623
      13        0.059555191667     0.139200207356     0.085842574764
      14       -0.096276697583     0.057272665293    -0.133182061641


  -Coulomb Gradient:
     Atom            X                  Y                   Z
    ------   -----------------  -----------------  -----------------
       1       -1.563381132403     0.503513553109     4.890884073266
       2       -3.191148338027     0.746062379539    -0.610118251964
       3       -0.164303214183    -3.451210872143     1.836754517256
       4       -3.007197309255     1.710655073350     1.728683995871
       5        2.897254969309     1.824093507183     1.892507360895
       6        1.132043683183    -3.000621057966    -0.907236040006
       7       -0.636978422320     3.983532247994    -1.282131952627
       8       -3.681321687705    -1.578405145775    -1.335214998851
       9        3.455536690668     1.568261662027    -3.496299336560
      10       -0.979441777700    -3.527839248191    -2.102753179982
      11        2.664772290881    -1.762262115606     2.776993154248
      12        3.110588860039    -1.597500109221    -1.652584807057
      13        1.687907756450     3.199221325041     1.489575892797
      14       -1.724332368937     1.382498800661    -3.229060427287


  -Exchange Gradient:
     Atom            X                  Y                   Z
    ------   -----------------  -----------------  -----------------
       1        0.006482534068    -0.004223518165     0.080251119414
       2       -0.083688158874     0.051983117236    -0.040290321561
       3       -0.000178380731     0.305730501061    -0.117353227475
       4        0.263922120487    -0.152908179459    -0.120341591617
       5       -0.265390262462    -0.152008061327    -0.117050210297
       6        0.042613874208    -0.097064538455     0.009913554787
       7        0.017450054288    -0.308452797973     0.101548242211
       8        0.276487157214     0.137741153228     0.103010774275
       9        0.037953059207     0.052982064224    -0.047412232749
      10        0.090350585763     0.264160471426     0.167586017049
      11       -0.196476880037     0.112342922521    -0.233527675553
      12       -0.258345243304     0.159022126219     0.124464170518
      13       -0.112305890113    -0.261780731409    -0.161546859333
      14        0.181125430289    -0.107524529127     0.250748240331


  -Total Gradient:
     Atom            X                  Y                   Z
    ------   -----------------  -----------------  -----------------
       1        0.001840963481    -0.001557828272     0.000086367929
       2        0.003455158787    -0.001497310908    -0.001371415372
       3        0.000009614934     0.000018959234     0.000461046418
       4        0.000012403569    -0.000004054152    -0.000813979559
       5       -0.000026824487    -0.000012365072     0.000400005507
       6       -0.002865861389     0.002102095246     0.001821668692
       7        0.001504233327     0.000521273541    -0.001399842304
       8        0.000423593647    -0.001461228949    -0.001226817247
       9       -0.001686210461     0.001753768968    -0.000000850746
      10       -0.001949981046    -0.000204872953     0.000122462956
      11       -0.000757180626     0.000303278202     0.001965653129
      12       -0.000451344083    -0.000463671272     0.000498633704
      13        0.000218070065     0.000218265471    -0.000276875663
      14        0.000273364283     0.000283690917    -0.000266057445


*** tstop() called on Barrys-MacBook-Pro.local at Mon May 13 19:15:24 2024
Module time:
	user time   =       0.49 seconds =       0.01 minutes
	system time =       0.01 seconds =       0.00 minutes
	total time  =          0 seconds =       0.00 minutes
Total time:
	user time   =     475.60 seconds =       7.93 minutes
	system time =       7.01 seconds =       0.12 minutes
	total time  =       8233 seconds =     137.22 minutes

    			-----------------------------------------

    			 OPTKING 3.0: for geometry optimizations 

    			     By R.A. King, Bethel University     

    			        with contributions from          

    			    A.V. Copan, J. Cayton, A. Heide      

    			-----------------------------------------

    
	                            ===> Fragment 1 <== 

	 Z (Atomic Numbers)          Masses                          Geom                  
	       6.000000            12.000000          1.58269023 -0.23663562 -3.20115907   
	       6.000000            12.000000          1.58269023 -0.23663562 -0.28767835   
	       1.000000             1.007825          1.58269023  1.68398277 -3.92413024   
	       1.000000             1.007825          3.24261685 -1.19835799 -3.93237012   
	       1.000000             1.007825         -0.08393379 -1.19277685 -3.92209273   
	       6.000000            12.000000         -0.77272304  1.12394292  0.88506556   
	       1.000000             1.007825          1.66222058 -2.18532873  0.35808521   
	       1.000000             1.007825          3.31086318  0.66167885  0.36662068   
	       6.000000            12.000000         -2.33870935 -0.59157133  2.64355687   
	       1.000000             1.007825         -0.17245244  2.77658539  1.94813726   
	       1.000000             1.007825         -2.00328144  1.81172823 -0.60940079   
	       1.000000             1.007825         -3.94976096  0.42368477  3.41086833   
	       1.000000             1.007825         -3.03768734 -2.22706183  1.61973546   
	       1.000000             1.007825         -1.19362527 -1.25783241  4.21083368   

	 - Coordinate -           - BOHR/RAD -       - ANG/DEG -
	 R(1,2)           =         2.913481           1.541748
	 R(1,3)           =         2.052185           1.085969
	 R(1,4)           =         2.053031           1.086417
	 R(1,5)           =         2.052215           1.085985
	 R(2,6)           =         2.962174           1.567515
	 R(2,7)           =         2.054444           1.087165
	 R(2,8)           =         2.054667           1.087283
	 R(6,9)           =         2.913348           1.541677
	 R(6,10)          =         2.054671           1.087285
	 R(6,11)          =         2.054447           1.087167
	 R(9,12)          =         2.053046           1.086425
	 R(9,13)          =         2.052221           1.085988
	 R(9,14)          =         2.052189           1.085971
	 B(1,2,6)         =         1.977851         113.322523
	 B(1,2,7)         =         1.890542         108.320082
	 B(1,2,8)         =         1.894885         108.568926
	 B(2,1,3)         =         1.930817         110.627655
	 B(2,1,4)         =         1.934953         110.864661
	 B(2,1,5)         =         1.929751         110.566566
	 B(2,6,9)         =         1.977864         113.323263
	 B(2,6,10)        =         1.919817         109.997401
	 B(2,6,11)        =         1.919902         110.002259
	 B(3,1,4)         =         1.889078         108.236194
	 B(3,1,5)         =         1.888387         108.196591
	 B(4,1,5)         =         1.889403         108.254806
	 B(6,2,7)         =         1.919855         109.999567
	 B(6,2,8)         =         1.919753         109.993768
	 B(6,9,12)        =         1.934993         110.866928
	 B(6,9,13)        =         1.929676         110.562269
	 B(6,9,14)        =         1.930739         110.623219
	 B(7,2,8)         =         1.856723         106.382386
	 B(9,6,10)        =         1.894804         108.564290
	 B(9,6,11)        =         1.890461         108.315420
	 B(10,6,11)       =         1.856760         106.384526
	 B(12,9,13)       =         1.889441         108.256983
	 B(12,9,14)       =         1.889117         108.238431
	 B(13,9,14)       =         1.888427         108.198915
	*D(1,2,6,9)       =         2.129295         121.999627
	 D(1,2,6,10)      =        -2.029384        -116.275128
	 D(1,2,6,11)      =         0.010332           0.591952
	 D(2,6,9,12)      =         3.142890         180.074357
	 D(2,6,9,13)      =        -1.044651         -59.854115
	 D(2,6,9,14)      =         1.046953          59.985993
	 D(3,1,2,6)       =         1.046981          59.987595
	 D(3,1,2,7)       =        -3.100803        -177.662933
	 D(3,1,2,8)       =        -1.091430         -62.534324
	 D(4,1,2,6)       =         3.142894         180.074586
	 D(4,1,2,7)       =        -1.004890         -57.575941
	 D(4,1,2,8)       =         1.004484          57.552668
	 D(5,1,2,6)       =        -1.044672         -59.855274
	 D(5,1,2,7)       =         1.090730          62.494199
	 D(5,1,2,8)       =         3.100103         177.622808
	 D(7,2,6,9)       =         0.010270           0.588412
	 D(7,2,6,10)      =         2.134776         122.313657
	 D(7,2,6,11)      =        -2.108694        -120.819263
	 D(8,2,6,9)       =        -2.029335        -116.272314
	 D(8,2,6,10)      =         0.095172           5.452931
	 D(8,2,6,11)      =         2.134887         122.320011
	 D(10,6,9,12)     =         1.004448          57.550652
	 D(10,6,9,13)     =         3.100092         177.622179
	 D(10,6,9,14)     =        -1.091489         -62.537713
	 D(11,6,9,12)     =        -1.004884         -57.575600
	 D(11,6,9,13)     =         1.090760          62.495928
	 D(11,6,9,14)     =        -3.100821        -177.663964


	        --- Internal Coordinate Step in ANG or DEG, aJ/ANG or AJ/DEG ---
	-------------------------------------------------------------------------------
	           Coordinate      Previous         Force          Change          New 
	           ----------      --------        ------          ------        ------
	               R(1,2)       1.54175        0.00110        0.00015       1.54189
	               R(1,3)       1.08597        0.00119        0.00012       1.08609
	               R(1,4)       1.08642       -0.00249       -0.00025       1.08617
	               R(1,5)       1.08599        0.00093        0.00009       1.08608
	               R(2,6)       1.56751       -0.07501       -0.00935       1.55816
	               R(2,7)       1.08716        0.00722        0.00073       1.08789
	               R(2,8)       1.08728        0.00555        0.00056       1.08784
	               R(6,9)       1.54168        0.00163        0.00021       1.54189
	              R(6,10)       1.08729        0.00553        0.00055       1.08784
	              R(6,11)       1.08717        0.00721        0.00073       1.08789
	              R(9,12)       1.08643       -0.00256       -0.00026       1.08617
	              R(9,13)       1.08599        0.00091        0.00009       1.08608
	              R(9,14)       1.08597        0.00118        0.00012       1.08609
	             B(1,2,6)     113.32252       -0.00012       -0.29873     113.02379
	             B(1,2,7)     108.32008        0.00011        0.40898     108.72906
	             B(1,2,8)     108.56893        0.00010        0.38097     108.94989
	             B(2,1,3)     110.62765        0.00006        0.17348     110.80113
	             B(2,1,4)     110.86466       -0.00010       -0.30951     110.55515
	             B(2,1,5)     110.56657        0.00005        0.14943     110.71600
	             B(2,6,9)     113.32326       -0.00012       -0.29960     113.02367
	            B(2,6,10)     109.99740       -0.00005       -0.37221     109.62519
	            B(2,6,11)     110.00226       -0.00005       -0.39101     109.61125
	             B(3,1,4)     108.23619        0.00001       -0.00074     108.23546
	             B(3,1,5)     108.19659       -0.00003       -0.00977     108.18683
	             B(4,1,5)     108.25481        0.00002       -0.00321     108.25160
	             B(6,2,7)     109.99957       -0.00005       -0.38870     109.61086
	             B(6,2,8)     109.99377       -0.00005       -0.36893     109.62484
	            B(6,9,12)     110.86693       -0.00010       -0.31138     110.55555
	            B(6,9,13)     110.56227        0.00005        0.15323     110.71550
	            B(6,9,14)     110.62322        0.00006        0.17738     110.80060
	             B(7,2,8)     106.38239        0.00002        0.31826     106.70065
	            B(9,6,10)     108.56429        0.00010        0.38512     108.94941
	            B(9,6,11)     108.31542        0.00011        0.41316     108.72858
	           B(10,6,11)     106.38453        0.00002        0.31649     106.70101
	           B(12,9,13)     108.25698        0.00002       -0.00523     108.25175
	           B(12,9,14)     108.23843        0.00001       -0.00283     108.23560
	           B(13,9,14)     108.19892       -0.00004       -0.01173     108.18719
	          *D(1,2,6,9)     121.99963        0.00000        0.00001     121.99964
	          D(1,2,6,10)    -116.27513        0.00002        0.01928    -116.25585
	          D(1,2,6,11)       0.59195       -0.00002       -0.04378       0.54818
	          D(2,6,9,12)     180.07436        0.00000        0.00089     180.07524
	          D(2,6,9,13)     -59.85412       -0.00001       -0.10888     -59.96300
	          D(2,6,9,14)      59.98599        0.00001        0.09226      60.07826
	           D(3,1,2,6)      59.98759        0.00001        0.08932      60.07692
	           D(3,1,2,7)    -177.66293       -0.00005       -0.31191    -177.97484
	           D(3,1,2,8)     -62.53432        0.00008        0.48731     -62.04701
	           D(4,1,2,6)     180.07459        0.00000       -0.00078     180.07381
	           D(4,1,2,7)     -57.57594       -0.00007       -0.40201     -57.97795
	           D(4,1,2,8)      57.55267        0.00007        0.39721      57.94988
	           D(5,1,2,6)     -59.85527       -0.00001       -0.10928     -59.96456
	           D(5,1,2,7)      62.49420       -0.00008       -0.51051      61.98369
	           D(5,1,2,8)     177.62281        0.00005        0.28871     177.91152
	           D(7,2,6,9)       0.58841       -0.00002       -0.04065       0.54776
	          D(7,2,6,10)     122.31366       -0.00000       -0.02138     122.29227
	          D(7,2,6,11)    -120.81926       -0.00004       -0.08444    -120.90370
	           D(8,2,6,9)    -116.27231        0.00002        0.01692    -116.25539
	          D(8,2,6,10)       5.45293        0.00004        0.03619       5.48912
	          D(8,2,6,11)     122.32001       -0.00000       -0.02687     122.29314
	         D(10,6,9,12)      57.55065        0.00007        0.40065      57.95130
	         D(10,6,9,13)     177.62218        0.00005        0.29088     177.91306
	         D(10,6,9,14)     -62.53771        0.00008        0.49202     -62.04569
	         D(11,6,9,12)     -57.57560       -0.00007       -0.40084     -57.97644
	         D(11,6,9,13)      62.49593       -0.00008       -0.51061      61.98532
	         D(11,6,9,14)    -177.66396       -0.00005       -0.30947    -177.97343
	-------------------------------------------------------------------------------

	                                 ==> Convergence Check <==                                  
    
	Measures of convergence in internal coordinates in au.
    
	Criteria marked as inactive (o), active & met (*), and active & unmet ( ).

	----------------------------------------------------------------------------------------------
	   Step    Total Energy     Delta E     Max Force     RMS Force      Max Disp      RMS Disp   
	----------------------------------------------------------------------------------------------
	  Convergence Criteria     1.00e-06 *    3.00e-04 *             o    1.20e-03 *             o
	----------------------------------------------------------------------------------------------
	     2    -155.46108088   -9.25e-05      9.10e-03      1.35e-03 o    1.77e-02      4.88e-03 o  ~
	----------------------------------------------------------------------------------------------

Next Geometry in Ang 
	Fragment 1 (Ang)

	    C   0.8305467735  -0.1228743689  -1.6900399726
	    C   0.8343598941  -0.1240283471  -0.1481517337
	    H   0.8325745322   0.8927072698  -2.0749845126
	    H   1.7088941344  -0.6336322819  -2.0739589168
	    H  -0.0512829286  -0.6285702928  -2.0724246433
	    C  -0.4049005838   0.5945126111   0.4648699254
	    H   0.8686083716  -1.1540339073   0.2003088079
	    H   1.7454880929   0.3553230917   0.2032213272
	    C  -1.2317242162  -0.3166224266   1.3941787848
	    H  -0.0803350173   1.4688874025   1.0248001400
	    H  -1.0493270432   0.9560637689  -0.3335693456
	    H  -2.0840877597   0.2226047203   1.7972580450
	    H  -1.6019159599  -1.1825788458   0.8532085195
	    H  -0.6282673984  -0.6688646710   2.2256586307


    Structure for next step:
    Molecular point group: c1
    Full point group: C1

    Geometry (in Angstrom), charge = 0, multiplicity = 1:

    C       
    C             1    1.541893
    H             1    1.086090      2  110.801131
    H             1    1.086168      2  110.555150      3  119.996890
    H             1    1.086080      2  110.716000      3 -120.041474
    C             2    1.558160      1  113.023788      3   60.076917
    H             2    1.087892      1  108.729061      6  121.948244
    H             2    1.087840      1  108.949894      6 -122.123927
    C             6    1.541888      2  113.023668      1    dihedral
    H             6    1.087840      2  109.625191      9  121.744515
    H             6    1.087892      2  109.611247      9 -121.451463
    H             9    1.086169      6  110.555551     10   57.951298
    H             9    1.086081      6  110.715500     12  119.961760
    H             9    1.086091      6  110.800601     12 -119.996988

    dihedral  =  121.9996378363


Scratch directory: /tmp/
gradient() will perform analytic gradient computation.
   => Libint2 <=

    Primary   basis highest AM E, G, H:  5, 4, 3
    Auxiliary basis highest AM E, G, H:  6, 5, 4
    Onebody   basis highest AM E, G, H:  6, 5, 4
    Solid Harmonics ordering:            Gaussian

*** tstart() called on Barrys-MacBook-Pro.local
*** at Mon May 13 19:15:25 2024

   => Loading Basis Set <=

    Name: STO-3G
    Role: ORBITAL
    Keyword: BASIS
    atoms 1-2, 6, 9       entry C          line    61 file /Users/blink/psi4conda/share/psi4/basis/sto-3g.gbs 
    atoms 3-5, 7-8, 10-14 entry H          line    19 file /Users/blink/psi4conda/share/psi4/basis/sto-3g.gbs 


         ---------------------------------------------------------
                                   SCF
               by Justin Turney, Rob Parrish, Andy Simmonett
                          and Daniel G. A. Smith
                              RHF Reference
                        4 Threads,   1907 MiB Core
         ---------------------------------------------------------

  ==> Geometry <==

    Molecular point group: c1
    Full point group: C1

    Geometry (in Angstrom), charge = 0, multiplicity = 1:

       Center              X                  Y                   Z               Mass       
    ------------   -----------------  -----------------  -----------------  -----------------
         C            0.835134586215    -0.121632828991    -1.687851178758    12.000000000000
         C            0.835134586215    -0.121632828991    -0.145957793047    12.000000000000
         H            0.835134586215     0.893664803722    -2.073549496957     1.007825032230
         H            1.715924736043    -0.630093524674    -2.069214418477     1.007825032230
         H           -0.044258008240    -0.630199482653    -2.072036877318     1.007825032230
         C           -0.407742903035     0.593719875889     0.463459346227    12.000000000000
         H            0.871543191774    -1.151274825835     0.203357155193     1.007825032230
         H            1.743979537799     0.360652516087     0.207308571399     1.007825032230
         C           -1.234186640619    -0.319150331715     1.391402267281    12.000000000000
         H           -0.087131806795     1.469458792980     1.023535949925     1.007825032230
         H           -1.051249408017     0.952785141250    -0.336841524714     1.007825032230
         H           -2.089124142457     0.217869973930     1.791968710526     1.007825032230
         H           -1.600495213840    -1.186590852127     0.850166414989     1.007825032230
         H           -0.631758577221    -0.669002552641     2.224635317379     1.007825032230

  Running in c1 symmetry.

  Rotational constants: A =      0.60838  B =      0.12374  C =      0.12328 [cm^-1]
  Rotational constants: A =  18238.70208  B =   3709.73938  C =   3695.77575 [MHz]
  Nuclear repulsion =  130.425753381461362

  Charge       = 0
  Multiplicity = 1
  Electrons    = 34
  Nalpha       = 17
  Nbeta        = 17

  ==> Algorithm <==

  SCF Algorithm Type is DIRECT.
  DIIS enabled.
  MOM disabled.
  Fractional occupation disabled.
  Guess Type is READ.
  Energy threshold   = 1.00e-08
  Density threshold  = 1.00e-08
  Integral threshold = 1.00e-08

  ==> Primary Basis <==

  -AO BASIS SET INFORMATION:
    Name                   = STO-3G
    Blend                  = STO-3G
    Total number of shells = 22
    Number of primitives   = 66
    Number of AO           = 30
    Number of SO           = 30
    Maximum AM             = 1
    Spherical Harmonics    = TRUE

  -Contraction Scheme:
    Atom   Type   All Primitives // Shells:
   ------ ------ --------------------------
       1     C     6s 3p // 2s 1p 
       2     C     6s 3p // 2s 1p 
       3     H     3s // 1s 
       4     H     3s // 1s 
       5     H     3s // 1s 
       6     C     6s 3p // 2s 1p 
       7     H     3s // 1s 
       8     H     3s // 1s 
       9     C     6s 3p // 2s 1p 
      10     H     3s // 1s 
      11     H     3s // 1s 
      12     H     3s // 1s 
      13     H     3s // 1s 
      14     H     3s // 1s 

   => Loading Basis Set <=

    Name: (STO-3G AUX)
    Role: JKFIT
    Keyword: DF_BASIS_SCF
    atoms 1-2, 6, 9       entry C          line   198 file /Users/blink/psi4conda/share/psi4/basis/def2-universal-jkfit.gbs 
    atoms 3-5, 7-8, 10-14 entry H          line    18 file /Users/blink/psi4conda/share/psi4/basis/def2-universal-jkfit.gbs 

   => Loading Basis Set <=

    Name: STO-3G
    Role: ORBITAL
    Keyword: BASIS
    atoms 1-2, 6, 9       entry C          line    61 file /Users/blink/psi4conda/share/psi4/basis/sto-3g.gbs 
    atoms 3-5, 7-8, 10-14 entry H          line    19 file /Users/blink/psi4conda/share/psi4/basis/sto-3g.gbs 

  Reading orbitals from file /tmp/butane_TS_Start_120.default.73325.180.npy, no projection.

  Starting with a DF guess...

  ==> Integral Setup <==

  DFHelper Memory: AOs need 0.005 GiB; user supplied 1.397 GiB. 
  Using in-core AOs.

  ==> MemDFJK: Density-Fitted J/K Matrices <==

    J tasked:                   Yes
    K tasked:                   Yes
    wK tasked:                   No
    OpenMP threads:               4
    Memory [MiB]:              1430
    Algorithm:                 Core
    Schwarz Cutoff:           1E-08
    Mask sparsity (%):       0.6667
    Fitting Condition:        1E-10

   => Auxiliary Basis Set <=

  -AO BASIS SET INFORMATION:
    Name                   = (STO-3G AUX)
    Blend                  = DEF2-UNIVERSAL-JKFIT
    Total number of shells = 160
    Number of primitives   = 212
    Number of AO           = 556
    Number of SO           = 480
    Maximum AM             = 4
    Spherical Harmonics    = TRUE

  -Contraction Scheme:
    Atom   Type   All Primitives // Shells:
   ------ ------ --------------------------
       1     C     14s 10p 6d 2f 1g // 10s 8p 5d 1f 1g 
       2     C     14s 10p 6d 2f 1g // 10s 8p 5d 1f 1g 
       3     H     4s 2p 2d // 2s 2p 2d 
       4     H     4s 2p 2d // 2s 2p 2d 
       5     H     4s 2p 2d // 2s 2p 2d 
       6     C     14s 10p 6d 2f 1g // 10s 8p 5d 1f 1g 
       7     H     4s 2p 2d // 2s 2p 2d 
       8     H     4s 2p 2d // 2s 2p 2d 
       9     C     14s 10p 6d 2f 1g // 10s 8p 5d 1f 1g 
      10     H     4s 2p 2d // 2s 2p 2d 
      11     H     4s 2p 2d // 2s 2p 2d 
      12     H     4s 2p 2d // 2s 2p 2d 
      13     H     4s 2p 2d // 2s 2p 2d 
      14     H     4s 2p 2d // 2s 2p 2d 

  Minimum eigenvalue in the overlap matrix is 2.0127214552E-01.
  Reciprocal condition number of the overlap matrix is 7.7843180708E-02.
    Using symmetric orthogonalization.

  ==> Pre-Iterations <==

  SCF Guess: Orbitals guess was supplied from a previous computation.

   -------------------------------------------------------
    Irrep   Nso     Nmo     Nalpha   Nbeta   Ndocc  Nsocc
   -------------------------------------------------------
     A         30      30      17      17      17       0
   -------------------------------------------------------
    Total      30      30      17      17      17       0
   -------------------------------------------------------

  ==> Iterations <==

                           Total Energy        Delta E     RMS |[F,P]|

   @DF-RHF iter   0:  -155.46359842024964   -1.55464e+02   5.93476e-04 
   @DF-RHF iter   1:  -155.46176558950856    1.83283e-03   5.81953e-05 DIIS
   @DF-RHF iter   2:  -155.46176837232372   -2.78282e-06   1.62517e-05 DIIS
   @DF-RHF iter   3:  -155.46176860533512   -2.33011e-07   4.06533e-06 DIIS
   @DF-RHF iter   4:  -155.46176862009764   -1.47625e-08   2.63908e-07 DIIS
   @DF-RHF iter   5:  -155.46176862015966   -6.20162e-11   5.72487e-08 DIIS
   @DF-RHF iter   6:  -155.46176862016239   -2.72848e-12   1.03372e-08 DIIS
   @DF-RHF iter   7:  -155.46176862016262   -2.27374e-13   1.43765e-09 DIIS

  DF guess converged.

  ==> DirectJK: Integral-Direct J/K Matrices <==

    J tasked:                  Yes
[...]
      12        1.766016895975    -0.754306467513    -1.002451099532
      13        1.077317315356     1.724846894984     0.533130623428
      14       -0.677543990892     0.795317916092    -1.864467276033


  -Core Hamiltonian Gradient:
     Atom            X                  Y                   Z
    ------   -----------------  -----------------  -----------------
       1        2.898919490064    -0.899683337559   -10.673872166412
       2        7.447756870867    -2.210192077203     1.867381317731
       3        0.344449966498     5.046629010949    -3.028041436730
       4        4.523144759426    -2.547152753051    -2.752333861904
       5       -4.130013335892    -2.726454543435    -3.130514958040
       6       -2.821460168746     7.309603329356     1.565413951068
       7        1.122689891446    -5.912148863590     1.942933775992
       8        5.562735557290     2.348675781531     2.076631616018
       9       -7.247245895847    -3.893331496476     7.447354846103
      10        1.446750335615     5.377540472773     3.124363152163
      11       -3.980957300729     2.761606785136    -4.063793535228
      12       -4.759384798513     2.286742987357     2.577046953697
      13       -2.710020408558    -4.812945300580    -1.944747297270
      14        2.302635037078    -2.128889995208     4.992177642811


  -Overlap Gradient:
     Atom            X                  Y                   Z
    ------   -----------------  -----------------  -----------------
       1       -0.001034839482     0.000562938654    -0.045830402623
       2        0.043641719383    -0.026530041062     0.024821204690
       3        0.000243570657    -0.162390708895     0.063007314578
       4       -0.140837898878     0.081383986215     0.062846575363
       5        0.140853172906     0.081039122113     0.062688258400
       6       -0.019907940669     0.052689293577    -0.007212410376
       7       -0.006597667991     0.163899514347    -0.056200284612
       8       -0.145920358796    -0.075371717012    -0.056536672813
       9       -0.023858540192    -0.028000523640     0.027360622388
      10       -0.050028115226    -0.140612694227    -0.088855571073
      11        0.102318640053    -0.058390505125     0.127226297077
      12        0.137582898884    -0.084971363050    -0.065261976466
      13        0.059250058963     0.139523688854     0.085786728677
      14       -0.095704699612     0.057169009251    -0.133839683207


  -Coulomb Gradient:
     Atom            X                  Y                   Z
    ------   -----------------  -----------------  -----------------
       1       -1.526027546085     0.472476251496     4.907921182163
       2       -3.271139634121     0.779121035365    -0.584692576689
       3       -0.165558078087    -3.450212959787     1.854800626334
       4       -3.018925979298     1.712311080404     1.702490915551
       5        2.891041620467     1.833256637435     1.908555130709
       6        1.212847785180    -3.047930611938    -0.942611284570
       7       -0.585958637640     3.983373278716    -1.333089425418
       8       -3.652973007920    -1.628964700606    -1.380915526098
       9        3.432644476774     1.629144294740    -3.493180665469
      10       -1.028354596350    -3.531033415965    -2.092591577668
      11        2.622132789265    -1.738986257058     2.843954414746
      12        3.114170788916    -1.607316060787    -1.631820633284
      13        1.685258703730     3.210949629634     1.487023888828
      14       -1.709158684831     1.383811798350    -3.245844469135


  -Exchange Gradient:
     Atom            X                  Y                   Z
    ------   -----------------  -----------------  -----------------
       1        0.002293717855    -0.001525769638     0.080150367330
       2       -0.078443782568     0.048568508001    -0.043556787317
       3       -0.000175915452     0.305373202457    -0.118678021514
       4        0.264698401152    -0.152934235452    -0.117838918224
       5       -0.264699685375    -0.152620540063    -0.118133929437
       6        0.037053753110    -0.094187483842     0.012849179001
       7        0.013143382831    -0.307792206755     0.105387012326
       8        0.273602894767     0.141503217135     0.106499311155
       9        0.041160056340     0.049419753752    -0.047910262601
      10        0.094211192414     0.263920176510     0.166415652575
      11       -0.192438146909     0.110163382346    -0.238425686364
      12       -0.258412869826     0.159861752316     0.122503084647
      13       -0.111782014472    -0.262354567007    -0.161212356419
      14        0.179789016133    -0.107395189760     0.251951354841


  -Total Gradient:
     Atom            X                  Y                   Z
    ------   -----------------  -----------------  -----------------
       1       -0.000147948839    -0.000316659541     0.000094164770
       2        0.000105645476     0.000408687762    -0.000165261962
       3       -0.000005805253    -0.000001262790     0.000030996559
       4        0.000025181813    -0.000013434605    -0.000018052076
       5       -0.000000577157     0.000005283251     0.000036311623
       6        0.000207659515    -0.000061647802     0.000396998157
       7       -0.000005820178    -0.000013719671    -0.000034263062
       8        0.000002927117     0.000016102254    -0.000034157215
       9       -0.000161463793    -0.000025600064    -0.000322349543
      10       -0.000005962733    -0.000019667868     0.000030900713
      11       -0.000027084297    -0.000022813862     0.000009226452
      12       -0.000027084565     0.000010848324     0.000016329062
      13        0.000023655019     0.000020345885    -0.000018412757
      14        0.000016677877     0.000013538726    -0.000022430723


*** tstop() called on Barrys-MacBook-Pro.local at Mon May 13 19:15:27 2024
Module time:
	user time   =       0.51 seconds =       0.01 minutes
	system time =       0.01 seconds =       0.00 minutes
	total time  =          0 seconds =       0.00 minutes
Total time:
	user time   =     485.36 seconds =       8.09 minutes
	system time =       7.19 seconds =       0.12 minutes
	total time  =       8236 seconds =     137.27 minutes

    			-----------------------------------------

    			 OPTKING 3.0: for geometry optimizations 

    			     By R.A. King, Bethel University     

    			        with contributions from          

    			    A.V. Copan, J. Cayton, A. Heide      

    			-----------------------------------------

    
	                            ===> Fragment 1 <== 

	 Z (Atomic Numbers)          Masses                          Geom                  
	       6.000000            12.000000          1.57732177 -0.23128065 -3.18872476   
	       6.000000            12.000000          1.57732177 -0.23128065 -0.27571935   
	       1.000000             1.007825          1.57732177  1.68762391 -3.91662013   
	       1.000000             1.007825          3.24110938 -1.19253821 -3.91073998   
	       1.000000             1.007825         -0.08541883 -1.19138386 -3.91359430   
	       6.000000            12.000000         -0.76893418  1.12232998  0.87554011   
	       1.000000             1.007825          1.64453797 -2.17736848  0.38353705   
	       1.000000             1.007825          3.29584341  0.67882664  0.39083464   
	       6.000000            12.000000         -2.33207354 -0.60064833  2.62870189   
	       1.000000             1.007825         -0.16147478  2.77603879  1.93485367   
	       1.000000             1.007825         -1.98507493  1.80200977 -0.63622409   
	       1.000000             1.007825         -3.94631306  0.41522060  3.38748383   
	       1.000000             1.007825         -3.02612745 -2.23831128  1.60484262   
	       1.000000             1.007825         -1.19303613 -1.26405372  4.20176014   

	 - Coordinate -           - BOHR/RAD -       - ANG/DEG -
	 R(1,2)           =         2.913005           1.541496
	 R(1,3)           =         2.052322           1.086042
	 R(1,4)           =         2.052684           1.086234
	 R(1,5)           =         2.052301           1.086031
	 R(2,6)           =         2.943226           1.557488
	 R(2,7)           =         2.055820           1.087893
	 R(2,8)           =         2.055701           1.087830
	 R(6,9)           =         2.913011           1.541499
	 R(6,10)          =         2.055701           1.087830
	 R(6,11)          =         2.055820           1.087893
	 R(9,12)          =         2.052683           1.086233
	 R(9,13)          =         2.052301           1.086031
	 R(9,14)          =         2.052322           1.086042
	 B(1,2,6)         =         1.972683         113.026429
	 B(1,2,7)         =         1.897242         108.703939
	 B(1,2,8)         =         1.901012         108.919936
	 B(2,1,3)         =         1.933357         110.773169
	 B(2,1,4)         =         1.930228         110.593903
	 B(2,1,5)         =         1.931784         110.683070
	 B(2,6,9)         =         1.972683         113.026397
	 B(2,6,10)        =         1.913434         109.631711
	 B(2,6,11)        =         1.913449         109.632530
	 B(3,1,4)         =         1.889250         108.246037
	 B(3,1,5)         =         1.888238         108.188083
	 B(4,1,5)         =         1.889544         108.262899
	 B(6,2,7)         =         1.913450         109.632628
	 B(6,2,8)         =         1.913437         109.631877
	 B(6,9,12)        =         1.930226         110.593808
	 B(6,9,13)        =         1.931787         110.683244
	 B(6,9,14)        =         1.933360         110.773346
	 B(7,2,8)         =         1.862705         106.725160
	 B(9,6,10)        =         1.901015         108.920148
	 B(9,6,11)        =         1.897246         108.704163
	 B(10,6,11)       =         1.862703         106.725019
	 B(12,9,13)       =         1.889543         108.262818
	 B(12,9,14)       =         1.889248         108.245959
	 B(13,9,14)       =         1.888236         108.187975
	*D(1,2,6,9)       =         2.129295         121.999638
	 D(1,2,6,10)      =        -2.029588        -116.286827
	 D(1,2,6,11)      =         0.009815           0.562360
	 D(2,6,9,12)      =         3.142208         180.035283
	 D(2,6,9,13)      =        -1.046938         -59.985139
	 D(2,6,9,14)      =         1.047512          60.018043
	 D(3,1,2,6)       =         1.047518          60.018335
	 D(3,1,2,7)       =        -3.107067        -178.021840
	 D(3,1,2,8)       =        -1.083760         -62.094872
	 D(4,1,2,6)       =         3.142214         180.035619
	 D(4,1,2,7)       =        -1.012370         -58.004555
	 D(4,1,2,8)       =         1.010937          57.922412
	 D(5,1,2,6)       =        -1.046931         -59.984753
	 D(5,1,2,7)       =         1.081669          61.975073
	 D(5,1,2,8)       =         3.104976         177.902040
	 D(7,2,6,9)       =         0.009818           0.562553
	 D(7,2,6,10)      =         2.134120         122.276088
	 D(7,2,6,11)      =        -2.109662        -120.874725
	 D(8,2,6,9)       =        -2.029590        -116.286958
	 D(8,2,6,10)      =         0.094712           5.426577
	 D(8,2,6,11)      =         2.134115         122.275764
	 D(10,6,9,12)     =         1.010932          57.922157
	 D(10,6,9,13)     =         3.104971         177.901736
	 D(10,6,9,14)     =        -1.083764         -62.095082
	 D(11,6,9,12)     =        -1.012376         -58.004879
	 D(11,6,9,13)     =         1.081663          61.974699
	 D(11,6,9,14)     =        -3.107072        -178.022119


	        --- Internal Coordinate Step in ANG or DEG, aJ/ANG or AJ/DEG ---
	-------------------------------------------------------------------------------
	           Coordinate      Previous         Force          Change          New 
	           ----------      --------        ------          ------        ------
	               R(1,2)       1.54150        0.00118        0.00018       1.54167
	               R(1,3)       1.08604        0.00010        0.00001       1.08605
	               R(1,4)       1.08623       -0.00027       -0.00003       1.08620
	               R(1,5)       1.08603        0.00012        0.00001       1.08604
	               R(2,6)       1.55749        0.00020        0.00004       1.55753
	               R(2,7)       1.08789       -0.00001       -0.00000       1.08789
	               R(2,8)       1.08783        0.00001       -0.00000       1.08783
	               R(6,9)       1.54150        0.00116        0.00017       1.54167
	              R(6,10)       1.08783        0.00001       -0.00000       1.08783
	              R(6,11)       1.08789       -0.00001       -0.00000       1.08789
	              R(9,12)       1.08623       -0.00027       -0.00003       1.08620
	              R(9,13)       1.08603        0.00012        0.00001       1.08604
	              R(9,14)       1.08604        0.00010        0.00001       1.08605
	             B(1,2,6)     113.02643       -0.00000       -0.00225     113.02418
	             B(1,2,7)     108.70394        0.00000        0.00865     108.71259
	             B(1,2,8)     108.91994        0.00000        0.00995     108.92989
	             B(2,1,3)     110.77317        0.00000        0.00890     110.78207
	             B(2,1,4)     110.59390       -0.00000       -0.00711     110.58679
	             B(2,1,5)     110.68307        0.00000        0.01127     110.69434
	             B(2,6,9)     113.02640       -0.00000       -0.00222     113.02418
	            B(2,6,10)     109.63171       -0.00000       -0.00115     109.63056
	            B(2,6,11)     109.63253       -0.00000       -0.00522     109.62731
	             B(3,1,4)     108.24604       -0.00000       -0.00534     108.24070
	             B(3,1,5)     108.18808       -0.00000       -0.00275     108.18533
	             B(4,1,5)     108.26290       -0.00000       -0.00555     108.25735
	             B(6,2,7)     109.63263       -0.00000       -0.00532     109.62731
	             B(6,2,8)     109.63188       -0.00000       -0.00135     109.63053
	            B(6,9,12)     110.59381       -0.00000       -0.00702     110.58679
	            B(6,9,13)     110.68324        0.00000        0.01108     110.69432
	            B(6,9,14)     110.77335        0.00000        0.00870     110.78205
	             B(7,2,8)     106.72516       -0.00000       -0.01003     106.71513
	            B(9,6,10)     108.92015        0.00000        0.00972     108.92987
	            B(9,6,11)     108.70416        0.00000        0.00840     108.71257
	           B(10,6,11)     106.72502       -0.00000       -0.00988     106.71514
	           B(12,9,13)     108.26282       -0.00000       -0.00545     108.25737
	           B(12,9,14)     108.24596       -0.00000       -0.00524     108.24072
	           B(13,9,14)     108.18797       -0.00000       -0.00264     108.18534
	          *D(1,2,6,9)     121.99964        0.00000        0.00000     121.99964
	          D(1,2,6,10)    -116.28683        0.00000        0.01013    -116.27670
	          D(1,2,6,11)       0.56236       -0.00000       -0.00552       0.55684
	          D(2,6,9,12)     180.03528        0.00000        0.00816     180.04344
	          D(2,6,9,13)     -59.98514       -0.00000        0.00398     -59.98116
	          D(2,6,9,14)      60.01804        0.00000        0.01364      60.03169
	           D(3,1,2,6)      60.01833        0.00000        0.01343      60.03176
	           D(3,1,2,7)    -178.02184        0.00000        0.01132    -178.01052
	           D(3,1,2,8)     -62.09487        0.00000        0.00953     -62.08535
	           D(4,1,2,6)     180.03562        0.00000        0.00789     180.04351
	           D(4,1,2,7)     -58.00456       -0.00000        0.00578     -57.99877
	           D(4,1,2,8)      57.92241        0.00000        0.00399      57.92640
	           D(5,1,2,6)     -59.98475       -0.00000        0.00365     -59.98111
	           D(5,1,2,7)      61.97507       -0.00000        0.00154      61.97661
	           D(5,1,2,8)     177.90204       -0.00000       -0.00025     177.90179
	           D(7,2,6,9)       0.56255       -0.00000       -0.00574       0.55681
	          D(7,2,6,10)     122.27609        0.00000        0.00438     122.28047
	          D(7,2,6,11)    -120.87472       -0.00000       -0.01126    -120.88599
	           D(8,2,6,9)    -116.28696        0.00000        0.01026    -116.27670
	          D(8,2,6,10)       5.42658        0.00000        0.02039       5.44696
	          D(8,2,6,11)     122.27576        0.00000        0.00474     122.28050
	         D(10,6,9,12)      57.92216        0.00000        0.00416      57.92631
	         D(10,6,9,13)     177.90174       -0.00000       -0.00003     177.90171
	         D(10,6,9,14)     -62.09508        0.00000        0.00964     -62.08544
	         D(11,6,9,12)     -58.00488       -0.00000        0.00603     -57.99885
	         D(11,6,9,13)      61.97470       -0.00000        0.00184      61.97654
	         D(11,6,9,14)    -178.02212        0.00000        0.01151    -178.01061
	-------------------------------------------------------------------------------

	                                 ==> Convergence Check <==                                  
    
	Measures of convergence in internal coordinates in au.
    
	Criteria marked as inactive (o), active & met (*), and active & unmet ( ).

	----------------------------------------------------------------------------------------------
	   Step    Total Energy     Delta E     Max Force     RMS Force      Max Disp      RMS Disp   
	----------------------------------------------------------------------------------------------
	  Convergence Criteria     1.00e-06 *    3.00e-04 *             o    1.20e-03 *             o
	----------------------------------------------------------------------------------------------
	     4    -155.46125510   -4.60e-07 *    1.43e-04 *    3.13e-05 o    3.56e-04 *    1.37e-04 o  ~
	----------------------------------------------------------------------------------------------

Next Geometry in Ang 
	Fragment 1 (Ang)

	    C   0.8346657552  -0.1223239764  -1.6875692386
	    C   0.8347272756  -0.1223632655  -0.1458959410
	    H   0.8348852192   0.8930768237  -2.0728906120
	    H   1.7150351767  -0.6311168967  -2.0695537160
	    H  -0.0452107183  -0.6302943601  -2.0713363000
	    C  -0.4068891592   0.5939481375   0.4633517664
	    H   0.8702737781  -1.1521418680   0.2030940120
	    H   1.7441206973   0.3591477990   0.2069838285
	    C  -1.2341136737  -0.3179681305   1.3911788374
	    H  -0.0854290410   1.4691474909   1.0237649713
	    H  -1.0503343819   0.9536695080  -0.3366984027
	    H  -2.0883610946   0.2196176085   1.7925462258
	    H  -1.6014116164  -1.1846958196   0.8495433589
	    H  -0.6315251947  -0.6689247163   2.2237819578


    Final optimized geometry and variables:
    Molecular point group: c1
    Full point group: C1

    Geometry (in Angstrom), charge = 0, multiplicity = 1:

    C       
    C             1    1.541496
    H             1    1.086042      2  110.773169
    H             1    1.086234      2  110.593903      3  120.017284
    H             1    1.086031      2  110.683070      3 -120.003088
    C             2    1.557488      1  113.026429      3   60.018335
    H             2    1.087893      1  108.703939      6  121.959826
    H             2    1.087830      1  108.919936      6 -122.113207
    C             6    1.541499      2  113.026397      1    dihedral
    H             6    1.087830      2  109.631711      9  121.713535
    H             6    1.087893      2  109.632530      9 -121.437278
    H             9    1.086233      6  110.593808     10   57.922157
    H             9    1.086031      6  110.683244     12  119.979578
    H             9    1.086042      6  110.773346     12 -120.017240

    dihedral  =  121.9996382857


  Memory set to   1.863 GiB by Python driver.
