
    -----------------------------------------------------------------------
          Psi4: An Open-Source Ab Initio Electronic Structure Package
                               Psi4 1.9.1 release

                         Git: Rev {} zzzzzzz 


    D. G. A. Smith, L. A. Burns, A. C. Simmonett, R. M. Parrish,
    M. C. Schieber, R. Galvelis, P. Kraus, H. Kruse, R. Di Remigio,
    A. Alenaizan, A. M. James, S. Lehtola, J. P. Misiewicz, M. Scheurer,
    R. A. Shaw, J. B. Schriber, Y. Xie, Z. L. Glick, D. A. Sirianni,
    J. S. O'Brien, J. M. Waldrop, A. Kumar, E. G. Hohenstein,
    B. P. Pritchard, B. R. Brooks, H. F. Schaefer III, A. Yu. Sokolov,
    K. Patkowski, A. E. DePrince III, U. Bozkaya, R. A. King,
    F. A. Evangelista, J. M. Turney, T. D. Crawford, C. D. Sherrill,
    J. Chem. Phys. 152(18) 184108 (2020). https://doi.org/10.1063/5.0006002

                            Additional Code Authors
    E. T. Seidl, C. L. Janssen, E. F. Valeev, M. L. Leininger,
    J. F. Gonthier, R. M. Richard, H. R. McAlexander, M. Saitow, X. Wang,
    P. Verma, M. H. Lechner, A. Jiang, S. Behnle, A. G. Heide,
    M. F. Herbst, and D. L. Poole

             Previous Authors, Complete List of Code Contributors,
                       and Citations for Specific Modules
    https://github.com/psi4/psi4/blob/master/codemeta.json
    https://github.com/psi4/psi4/graphs/contributors
    http://psicode.org/psi4manual/master/introduction.html#citing-psifour

    -----------------------------------------------------------------------


    Psi4 started on: Monday, 13 May 2024 02:44PM

    Process ID: 72198
    Host:       Barrys-MacBook-Pro.local
    PSIDATADIR: /Users/blink/psi4conda/share/psi4
    Memory:     3.7 GiB
    Threads:    4
    Molecule: Setting geometry variable dihedral to 110.000000

Scratch directory: /tmp/
gradient() will perform analytic gradient computation.
   => Libint2 <=

    Primary   basis highest AM E, G, H:  5, 4, 3
    Auxiliary basis highest AM E, G, H:  6, 5, 4
    Onebody   basis highest AM E, G, H:  6, 5, 4
    Solid Harmonics ordering:            Gaussian

*** tstart() called on Barrys-MacBook-Pro.local
*** at Mon May 13 15:26:23 2024

   => Loading Basis Set <=

    Name: STO-3G
    Role: ORBITAL
    Keyword: BASIS
    atoms 1-2, 6, 9       entry C          line    61 file /Users/blink/psi4conda/share/psi4/basis/sto-3g.gbs 
    atoms 3-5, 7-8, 10-14 entry H          line    19 file /Users/blink/psi4conda/share/psi4/basis/sto-3g.gbs 


         ---------------------------------------------------------
                                   SCF
               by Justin Turney, Rob Parrish, Andy Simmonett
                          and Daniel G. A. Smith
                              RHF Reference
                        4 Threads,   3814 MiB Core
         ---------------------------------------------------------

  ==> Geometry <==

    Molecular point group: c1
    Full point group: C1

    Geometry (in Angstrom), charge = 0, multiplicity = 1:

       Center              X                  Y                   Z               Mass       
    ------------   -----------------  -----------------  -----------------  -----------------
         C            0.855207571243    -0.175568568754    -1.639724321823    12.000000000000
         C            0.855207571243    -0.175568568754    -0.098128038026    12.000000000000
         H            0.855207571243     0.839521170905    -2.025996117797     1.007825032230
         H            1.740623141489    -0.680567917498    -2.014327688616     1.007825032230
         H           -0.015583245691    -0.689520158140    -2.032985997787     1.007825032230
         C           -0.307460299986     0.626232240748     0.533980407915    12.000000000000
         H            0.814164726946    -1.203930970138     0.257060198823     1.007825032230
         H            1.794346214205     0.246442530153     0.255320032888     1.007825032230
         C           -1.369472409037    -0.247547173382     1.230514539112    12.000000000000
         H            0.110570148219     1.320843161187     1.260455861555     1.007825032230
         H           -0.789777248151     1.223995860211    -0.237655119083     1.007825032230
         H           -2.106110556555     0.379859835063     1.723502647952     1.007825032230
         H           -1.889596403495    -0.877981157298     0.517000941129     1.007825032230
         H           -0.912513947302    -0.886670835806     1.980396519760     1.007825032230

  Running in c1 symmetry.

  Rotational constants: A =      0.56977  B =      0.12798  C =      0.12487 [cm^-1]
  Rotational constants: A =  17081.31279  B =   3836.66867  C =   3743.43462 [MHz]
  Nuclear repulsion =  130.681939562406029

  Charge       = 0
  Multiplicity = 1
  Electrons    = 34
  Nalpha       = 17
  Nbeta        = 17

  ==> Algorithm <==

  SCF Algorithm Type is DIRECT.
  DIIS enabled.
  MOM disabled.
  Fractional occupation disabled.
  Guess Type is SAD.
  Energy threshold   = 1.00e-08
  Density threshold  = 1.00e-08
  Integral threshold = 1.00e-08

  ==> Primary Basis <==

  -AO BASIS SET INFORMATION:
    Name                   = STO-3G
    Blend                  = STO-3G
    Total number of shells = 22
    Number of primitives   = 66
    Number of AO           = 30
    Number of SO           = 30
    Maximum AM             = 1
    Spherical Harmonics    = TRUE

  -Contraction Scheme:
    Atom   Type   All Primitives // Shells:
   ------ ------ --------------------------
       1     C     6s 3p // 2s 1p 
       2     C     6s 3p // 2s 1p 
       3     H     3s // 1s 
       4     H     3s // 1s 
       5     H     3s // 1s 
       6     C     6s 3p // 2s 1p 
       7     H     3s // 1s 
       8     H     3s // 1s 
       9     C     6s 3p // 2s 1p 
      10     H     3s // 1s 
      11     H     3s // 1s 
      12     H     3s // 1s 
      13     H     3s // 1s 
      14     H     3s // 1s 

   => Loading Basis Set <=

    Name: (STO-3G AUX)
    Role: JKFIT
    Keyword: DF_BASIS_SCF
    atoms 1-2, 6, 9       entry C          line   198 file /Users/blink/psi4conda/share/psi4/basis/def2-universal-jkfit.gbs 
    atoms 3-5, 7-8, 10-14 entry H          line    18 file /Users/blink/psi4conda/share/psi4/basis/def2-universal-jkfit.gbs 

  Starting with a DF guess...

  ==> Integral Setup <==

  DFHelper Memory: AOs need 0.005 GiB; user supplied 2.794 GiB. 
  Using in-core AOs.

  ==> MemDFJK: Density-Fitted J/K Matrices <==

    J tasked:                   Yes
    K tasked:                   Yes
    wK tasked:                   No
    OpenMP threads:               4
    Memory [MiB]:              2861
    Algorithm:                 Core
    Schwarz Cutoff:           1E-08
    Mask sparsity (%):       0.6667
    Fitting Condition:        1E-10

   => Auxiliary Basis Set <=

  -AO BASIS SET INFORMATION:
    Name                   = (STO-3G AUX)
    Blend                  = DEF2-UNIVERSAL-JKFIT
    Total number of shells = 160
    Number of primitives   = 212
    Number of AO           = 556
    Number of SO           = 480
    Maximum AM             = 4
    Spherical Harmonics    = TRUE

  -Contraction Scheme:
    Atom   Type   All Primitives // Shells:
   ------ ------ --------------------------
       1     C     14s 10p 6d 2f 1g // 10s 8p 5d 1f 1g 
       2     C     14s 10p 6d 2f 1g // 10s 8p 5d 1f 1g 
       3     H     4s 2p 2d // 2s 2p 2d 
       4     H     4s 2p 2d // 2s 2p 2d 
       5     H     4s 2p 2d // 2s 2p 2d 
       6     C     14s 10p 6d 2f 1g // 10s 8p 5d 1f 1g 
       7     H     4s 2p 2d // 2s 2p 2d 
       8     H     4s 2p 2d // 2s 2p 2d 
       9     C     14s 10p 6d 2f 1g // 10s 8p 5d 1f 1g 
      10     H     4s 2p 2d // 2s 2p 2d 
      11     H     4s 2p 2d // 2s 2p 2d 
      12     H     4s 2p 2d // 2s 2p 2d 
      13     H     4s 2p 2d // 2s 2p 2d 
      14     H     4s 2p 2d // 2s 2p 2d 

  Minimum eigenvalue in the overlap matrix is 2.0034116006E-01.
  Reciprocal condition number of the overlap matrix is 7.7384281977E-02.
    Using symmetric orthogonalization.

  ==> Pre-Iterations <==

  SCF Guess: Superposition of Atomic Densities via on-the-fly atomic UHF (no occupation information).

   -------------------------
    Irrep   Nso     Nmo    
   -------------------------
     A         30      30 
   -------------------------
    Total      30      30
   -------------------------

  ==> Iterations <==

                           Total Energy        Delta E     RMS |[F,P]|

   @DF-RHF iter SAD:  -151.51807914109457   -1.51518e+02   0.00000e+00 
   @DF-RHF iter   1:  -155.45392391879761   -3.93584e+00   3.41787e-03 DIIS/ADIIS
   @DF-RHF iter   2:  -155.46118391759995   -7.26000e-03   6.75498e-04 DIIS/ADIIS
   @DF-RHF iter   3:  -155.46154733161882   -3.63414e-04   1.53984e-04 DIIS/ADIIS
   @DF-RHF iter   4:  -155.46156372180531   -1.63902e-05   8.21754e-06 DIIS
   @DF-RHF iter   5:  -155.46156377369527   -5.18900e-08   1.43198e-06 DIIS
   @DF-RHF iter   6:  -155.46156377496641   -1.27113e-09   1.64724e-07 DIIS
   @DF-RHF iter   7:  -155.46156377499125   -2.48406e-11   2.42483e-08 DIIS
   @DF-RHF iter   8:  -155.46156377499170   -4.54747e-13   2.79941e-09 DIIS

  DF guess converged.

  ==> DirectJK: Integral-Direct J/K Matrices <==

    J tasked:                  Yes
    K tasked:                  Yes
    wK tasked:                  No
    Integrals threads:           4
    Screening Type:           CSAM
    Screening Cutoff:        1E-08
    Incremental Fock:           No

   @RHF iter   9:  -155.46104844371558   -1.55461e+02   4.38344e-06 DIIS
   @RHF iter  10:  -155.46104845215041   -8.43482e-09   7.37859e-07 DIIS
   @RHF iter  11:  -155.46104845242311   -2.72706e-10   1.20638e-07 DIIS
   @RHF iter  12:  -155.46104845243488   -1.17666e-11   2.06346e-08 DIIS
   @RHF iter  13:  -155.46104845243508   -1.98952e-13   1.01136e-09 DIIS
  Energy and wave function converged.


  ==> Post-Iterations <==

    Orbital Energies [Eh]
    ---------------------

    Doubly Occupied:                                                      

       1A    -11.036959     2A    -11.036622     3A    -11.031906  
       4A    -11.031901     5A     -1.026068     6A     -0.941623  
       7A     -0.832984     8A     -0.753945     9A     -0.597045  
      10A     -0.575812    11A     -0.550679    12A     -0.519688  
      13A     -0.484918    14A     -0.478484    15A     -0.430647  
      16A     -0.422126    17A     -0.415734  

    Virtual:                                                              

      18A      0.597497    19A      0.612442    20A      0.638005  
      21A      0.679986    22A      0.693268    23A      0.709536  
      24A      0.744601    25A      0.755862    26A      0.779523  
      27A      0.791114    28A      0.793638    29A      0.821619  
      30A      0.849040  

    Final Occupation by Irrep:
              A 
    DOCC [    17 ]
    NA   [    17 ]
    NB   [    17 ]

  @RHF Final Energy:  -155.46104845243508

   => Energetics <=

    Nuclear Repulsion Energy =            130.6819395624060292
    One-Electron Energy =                -467.9516936923050139
    Two-Electron Energy =                 181.8087056774638768
    Total Energy =                       -155.4610484524350795

Computation Completed


Properties will be evaluated at   0.000000,   0.000000,   0.000000 [a0]

Properties computed using the SCF density matrix


 Multipole Moments:

 ------------------------------------------------------------------------------------
     Multipole            Electronic (a.u.)      Nuclear  (a.u.)        Total (a.u.)
 ------------------------------------------------------------------------------------

 L = 1.  Multiply by 2.5417464519 to convert [e a0] to [Debye]
 Dipole X            :          0.3797022           -0.3737406            0.0059616
 Dipole Y            :          0.3124030           -0.3074979            0.0049050
 Dipole Z            :          0.3021361           -0.2973922            0.0047438
 Magnitude           :                                                    0.0090611

 ------------------------------------------------------------------------------------

*** tstop() called on Barrys-MacBook-Pro.local at Mon May 13 15:26:24 2024
Module time:
	user time   =       3.05 seconds =       0.05 minutes
	system time =       0.06 seconds =       0.00 minutes
	total time  =          1 seconds =       0.02 minutes
Total time:
	user time   =     998.23 seconds =      16.64 minutes
	system time =      16.64 seconds =       0.28 minutes
	total time  =       2516 seconds =      41.93 minutes

*** tstart() called on Barrys-MacBook-Pro.local
*** at Mon May 13 15:26:24 2024


         ------------------------------------------------------------
                                   SCF GRAD                          
                          Rob Parrish, Justin Turney,                
                       Andy Simmonett, and Alex Sokolov              
         ------------------------------------------------------------

  ==> Geometry <==

    Molecular point group: c1
    Full point group: C1

    Geometry (in Angstrom), charge = 0, multiplicity = 1:

       Center              X                  Y                   Z               Mass       
    ------------   -----------------  -----------------  -----------------  -----------------
         C            0.855207571243    -0.175568568754    -1.639724321823    12.000000000000
         C            0.855207571243    -0.175568568754    -0.098128038026    12.000000000000
         H            0.855207571243     0.839521170905    -2.025996117797     1.007825032230
         H            1.740623141489    -0.680567917498    -2.014327688616     1.007825032230
         H           -0.015583245691    -0.689520158140    -2.032985997787     1.007825032230
         C           -0.307460299986     0.626232240748     0.533980407915    12.000000000000
         H            0.814164726946    -1.203930970138     0.257060198823     1.007825032230
         H            1.794346214205     0.246442530153     0.255320032888     1.007825032230
         C           -1.369472409037    -0.247547173382     1.230514539112    12.000000000000
         H            0.110570148219     1.320843161187     1.260455861555     1.007825032230
         H           -0.789777248151     1.223995860211    -0.237655119083     1.007825032230
         H           -2.106110556555     0.379859835063     1.723502647952     1.007825032230
         H           -1.889596403495    -0.877981157298     0.517000941129     1.007825032230
         H           -0.912513947302    -0.886670835806     1.980396519760     1.007825032230

  Nuclear repulsion =  130.681939562406029

  ==> Basis Set <==

  -AO BASIS SET INFORMATION:
    Name                   = STO-3G
    Blend                  = STO-3G
    Total number of shells = 22
    Number of primitives   = 66
    Number of AO           = 30
    Number of SO           = 30
    Maximum AM             = 1
    Spherical Harmonics    = TRUE

  -Contraction Scheme:
    Atom   Type   All Primitives // Shells:
   ------ ------ --------------------------
       1     C     6s 3p // 2s 1p 
       2     C     6s 3p // 2s 1p 
       3     H     3s // 1s 
       4     H     3s // 1s 
       5     H     3s // 1s 
       6     C     6s 3p // 2s 1p 
       7     H     3s // 1s 
       8     H     3s // 1s 
       9     C     6s 3p // 2s 1p 
      10     H     3s // 1s 
      11     H     3s // 1s 
      12     H     3s // 1s 
      13     H     3s // 1s 
      14     H     3s // 1s 

  ==> DirectJKGrad: Integral-Direct SCF Gradients <==

    Gradient:                    1
    J tasked:                  Yes
    K tasked:                  Yes
    wK tasked:                  No
    Integrals threads:           4
    Schwarz Cutoff:          1E-08


  -Nuclear Gradient:
     Atom            X                  Y                   Z
    ------   -----------------  -----------------  -----------------
       1       -1.369355343549     0.511459911970     5.721253698303
       2       -4.110161420210     1.753152125809    -1.297043271462
       3       -0.184731662002    -1.727647958450     1.240510764928
       4       -1.640531530465     0.909283957972     1.093206023853
       5        1.347203381668     0.982118620297     1.284631232566
       6        0.906989465175    -4.388588805998    -1.251782110537
       7       -0.400441711093     2.100492252784    -0.690148547185
       8       -2.088663009348    -0.644593489949    -0.753499804004
       9        4.489529661985     2.055690847754    -3.238471234068
      10       -0.697868853756    -1.648048316811    -1.463793269331
      11        1.074518013334    -1.545890374336     1.226523654037
      12        1.621027846799    -0.925330852214    -1.108725705365
      13        1.403722694416     1.281226746811     0.904329417918
      14       -0.351237532953     1.286675334360    -1.666990849652


  -Core Hamiltonian Gradient:
     Atom            X                  Y                   Z
    ------   -----------------  -----------------  -----------------
       1        2.858843103437    -1.056169458888   -10.656302216129
       2        7.400076136757    -2.785097208609     1.886454299326
       3        0.355550473085     5.034919542343    -3.057512385110
       4        4.555044484220    -2.543404262516    -2.711478534824
       5       -4.065221310665    -2.782406607571    -3.181351266395
       6       -1.677637350296     7.493286908886     2.667004247932
       7        0.661103408324    -5.955535689414     2.029278809751
       8        5.676895368409     1.998608072306     2.134682844720
       9       -8.477248465299    -3.566428451672     6.185626857987
      10        2.132186727974     4.426379364436     4.079141386732
      11       -2.932975757519     4.086332225744    -3.837052442873
      12       -4.291099813767     2.760566143911     2.921502949418
      13       -3.627899261630    -3.547166588207    -2.940198536169
      14        1.432382256970    -3.563883990749     4.480203985633


  -Overlap Gradient:
     Atom            X                  Y                   Z
    ------   -----------------  -----------------  -----------------
       1        0.001539196114    -0.000374790623    -0.046183133647
       2        0.041460108769    -0.028920652720     0.029105654981
       3        0.000146346026    -0.162404028303     0.063270070275
       4       -0.141479256041     0.080548857271     0.061338235839
       5        0.138962760090     0.082534014881     0.065095459660
       6       -0.006114944053     0.058001028413    -0.000981101205
       7        0.006807169291     0.163369537870    -0.057564838746
       8       -0.149042462941    -0.066550349748    -0.057890485635
       9       -0.032289462162    -0.024925032692     0.021714783912
      10       -0.067278963247    -0.111429917768    -0.114240268702
      11        0.075799945266    -0.095403793490     0.123296950808
      12        0.118623762772    -0.099353352429    -0.079524710096
      13        0.084981054918     0.101717432049     0.113100489020
      14       -0.072115254802     0.103191047287    -0.120537106464


  -Coulomb Gradient:
     Atom            X                  Y                   Z
    ------   -----------------  -----------------  -----------------
       1       -1.489357174821     0.544572575859     4.899746296305
       2       -3.260467466454     1.012803971247    -0.566421219324
       3       -0.170969897415    -3.450053929448     1.872828807258
       4       -3.039302278716     1.705394949555     1.672397248535
       5        2.841570509972     1.872965970533     1.953666163732
       6        0.768898437072    -3.062768406109    -1.416172616580
       7       -0.256897586430     3.998159662168    -1.388953165079
       8       -3.719883130054    -1.411414183377    -1.430560629295
       9        3.963283622947     1.490877928409    -2.931192658086
      10       -1.491548601412    -2.876335228514    -2.716266885516
      11        1.925572987643    -2.625241502079     2.716751725688
      12        2.774879870791    -1.922949882017    -1.882801625275
      13        2.298591455192     2.356141075216     2.136449187523
      14       -1.144370748314     2.367846998557    -2.919470629886


  -Exchange Gradient:
     Atom            X                  Y                   Z
    ------   -----------------  -----------------  -----------------
       1       -0.002646514008     0.000613976989     0.081124101287
       2       -0.074796974997     0.052795830140    -0.053145534531
       3       -0.000114451850     0.305280647579    -0.119265528505
       4        0.266213052720    -0.151608023961    -0.115126594255
       5       -0.260919356863    -0.155355861239    -0.122423360795
       6        0.011035326153    -0.105255886654     0.002409778414
       7       -0.012770235315    -0.306857519314     0.108209340045
       8        0.280045400699     0.125670693244     0.109411542692
       9        0.056679622186     0.043841685067    -0.038129424955
      10        0.127299024420     0.209475368324     0.214719544376
      11       -0.142318713700     0.179256678061    -0.231616695842
      12       -0.223038910959     0.187129848925     0.149480933516
      13       -0.159975703948    -0.190938704514    -0.212490060923
      14        0.135308435461    -0.194048732647     0.226841959476


  -Total Gradient:
     Atom            X                  Y                   Z
    ------   -----------------  -----------------  -----------------
       1       -0.000976732827     0.000102215308    -0.000361253881
       2       -0.003889616135     0.004734065868    -0.001050071009
       3       -0.000119192156     0.000094273720    -0.000168271154
       4       -0.000055528283     0.000215478322     0.000336379148
       5        0.001595984203    -0.000143863100    -0.000381771232
       6        0.003170934051    -0.005325161461     0.000478198024
       7       -0.002198955223    -0.000371755906     0.000821598786
       8       -0.000647833235     0.001720742476     0.002143468477
       9       -0.000045020343    -0.000943023135    -0.000451675211
      10        0.002789333979     0.000041269666    -0.000439492440
      11        0.000596475024    -0.000946766099    -0.002096808180
      12        0.000392755635     0.000061906178    -0.000068157803
      13       -0.000579761051     0.000979961356     0.001190497369
      14       -0.000032843639    -0.000219343192     0.000047359106


*** tstop() called on Barrys-MacBook-Pro.local at Mon May 13 15:26:24 2024
Module time:
	user time   =       0.52 seconds =       0.01 minutes
	system time =       0.01 seconds =       0.00 minutes
	total time  =          0 seconds =       0.00 minutes
Total time:
	user time   =     998.76 seconds =      16.65 minutes
	system time =      16.65 seconds =       0.28 minutes
	total time  =       2516 seconds =      41.93 minutes

    			-----------------------------------------

    			 OPTKING 3.0: for geometry optimizations 

    			     By R.A. King, Bethel University     

    			        with contributions from          

    			    A.V. Copan, J. Cayton, A. Heide      

    			-----------------------------------------

    
	                            ===> Fragment 1 <== 

	 Z (Atomic Numbers)          Masses                          Geom                  
	       6.000000            12.000000          1.61610809 -0.33177651 -3.09862989   
	       6.000000            12.000000          1.61610809 -0.33177651 -0.18543512   
	       1.000000             1.007825          1.61610809  1.58646509 -3.82857779   
	       1.000000             1.007825          3.28930103 -1.28608697 -3.80652766   
	       1.000000             1.007825         -0.02944807 -1.30300426 -3.84178675   
	       6.000000            12.000000         -0.58101576  1.18340743  1.00907673   
	       1.000000             1.007825          1.53854835 -2.27509981  0.48577337   
	       1.000000             1.007825          3.39082292  0.46570889  0.48248494   
	       6.000000            12.000000         -2.58792779 -0.46779636  2.32533547   
	       1.000000             1.007825          0.20894730  2.49603183  2.38191637   
	       1.000000             1.007825         -1.49246270  2.31301695 -0.44910309   
	       1.000000             1.007825         -3.97997214  0.71783105  3.25694798   
	       1.000000             1.007825         -3.57081969 -1.65914393  0.97699019   
	       1.000000             1.007825         -1.72440145 -1.67556504  3.74240704   

	 - Coordinate -           - BOHR/RAD -       - ANG/DEG -
	 R(1,2)           =         2.913195           1.541596
	 R(1,3)           =         2.052431           1.086100
	 R(1,4)           =         2.052170           1.085962
	 R(1,5)           =         2.050225           1.084932
	 R(2,6)           =         2.924037           1.547334
	 R(2,7)           =         2.057436           1.088748
	 R(2,8)           =         2.057113           1.088577
	 R(6,9)           =         2.913195           1.541597
	 R(6,10)          =         2.057113           1.088577
	 R(6,11)          =         2.057436           1.088748
	 R(9,12)          =         2.052170           1.085962
	 R(9,13)          =         2.050225           1.084932
	 R(9,14)          =         2.052431           1.086100
	 B(1,2,6)         =         1.991622         114.111557
	 B(1,2,7)         =         1.903115         109.040442
	 B(1,2,8)         =         1.901478         108.946680
	 B(2,1,3)         =         1.934406         110.833307
	 B(2,1,4)         =         1.922983         110.178793
	 B(2,1,5)         =         1.941719         111.252324
	 B(2,6,9)         =         1.991622         114.111536
	 B(2,6,10)        =         1.890963         108.344209
	 B(2,6,11)        =         1.904817         109.137960
	 B(3,1,4)         =         1.888030         108.176146
	 B(3,1,5)         =         1.890022         108.290257
	 B(4,1,5)         =         1.885016         108.003437
	 B(6,2,7)         =         1.904817         109.137985
	 B(6,2,8)         =         1.890963         108.344198
	 B(6,9,12)        =         1.922982         110.178762
	 B(6,9,13)        =         1.941720         111.252353
	 B(6,9,14)        =         1.934407         110.833336
	 B(7,2,8)         =         1.867917         107.023747
	 B(9,6,10)        =         1.901479         108.946710
	 B(9,6,11)        =         1.903115         109.040465
	 B(10,6,11)       =         1.867916         107.023728
	 B(12,9,13)       =         1.885015         108.003431
	 B(12,9,14)       =         1.888030         108.176140
	 B(13,9,14)       =         1.890021         108.290241
	[D(1,2,6,9)[119.90,120.10]=         1.919862         110.000000
	 D(1,2,6,10)      =        -2.241960        -128.454856
	 D(1,2,6,11)      =        -0.213838         -12.252027
	 D(2,6,9,12)      =         3.056201         175.107402
	 D(2,6,9,13)      =        -1.136919         -65.140640
	 D(2,6,9,14)      =         0.967070          55.409012
	 D(3,1,2,6)       =         0.967070          55.409017
	 D(3,1,2,7)       =         3.101703         177.714488
	 D(3,1,2,8)       =        -1.148475         -65.802768
	 D(4,1,2,6)       =         3.056201         175.107417
	 D(4,1,2,7)       =        -1.092351         -62.587112
	 D(4,1,2,8)       =         0.940656          53.895631
	 D(5,1,2,6)       =        -1.136918         -65.140617
	 D(5,1,2,7)       =         0.997715          57.164854
	 D(5,1,2,8)       =         3.030722         173.647598
	 D(7,2,6,9)       =        -0.213838         -12.252029
	 D(7,2,6,10)      =         1.907525         109.293115
	 D(7,2,6,11)      =        -2.347539        -134.504056
	 D(8,2,6,9)       =        -2.241961        -128.454888
	 D(8,2,6,10)      =        -0.120598          -6.909744
	 D(8,2,6,11)      =         1.907524         109.293085
	 D(10,6,9,12)     =         0.940656          53.895595
	 D(10,6,9,13)     =         3.030722         173.647552
	 D(10,6,9,14)     =        -1.148475         -65.802795
	 D(11,6,9,12)     =        -1.092352         -62.587155
	 D(11,6,9,13)     =         0.997714          57.164802
	 D(11,6,9,14)     =         3.101702         177.714455


	        --- Internal Coordinate Step in ANG or DEG, aJ/ANG or AJ/DEG ---
	-------------------------------------------------------------------------------
	           Coordinate      Previous         Force          Change          New 
	           ----------      --------        ------          ------        ------
	               R(1,2)       1.54160       -0.00474       -0.00107       1.54053
	               R(1,3)       1.08610       -0.00122       -0.00022       1.08588
	               R(1,4)       1.08596        0.00215        0.00039       1.08635
	               R(1,5)       1.08493        0.00885        0.00160       1.08653
	               R(2,6)       1.54733        0.07057        0.01619       1.56352
	               R(2,7)       1.08875       -0.00578       -0.00106       1.08769
	               R(2,8)       1.08858       -0.00663       -0.00121       1.08736
	               R(6,9)       1.54160       -0.00474       -0.00107       1.54053
	              R(6,10)       1.08858       -0.00663       -0.00121       1.08736
	              R(6,11)       1.08875       -0.00578       -0.00106       1.08769
	              R(9,12)       1.08596        0.00216        0.00039       1.08635
	              R(9,13)       1.08493        0.00885        0.00160       1.08653
	              R(9,14)       1.08610       -0.00122       -0.00022       1.08588
	             B(1,2,6)     114.11156       -0.00029       -0.95567     113.15589
	             B(1,2,7)     109.04044        0.00004        2.11879     111.15923
	             B(1,2,8)     108.94668       -0.00003       -3.09243     105.85425
	             B(2,1,3)     110.83331       -0.00001       -0.11551     110.71780
	             B(2,1,4)     110.17879        0.00006        0.39449     110.57328
	             B(2,1,5)     111.25232       -0.00010       -0.51960     110.73273
	             B(2,6,9)     114.11154       -0.00029       -0.95564     113.15590
	            B(2,6,10)     108.34421        0.00024        1.46960     109.81381
	            B(2,6,11)     109.13796        0.00015        0.90250     110.04046
	             B(3,1,4)     108.17615       -0.00001        0.08916     108.26531
	             B(3,1,5)     108.29026        0.00002       -0.13299     108.15727
	             B(4,1,5)     108.00344        0.00004        0.29854     108.30197
	             B(6,2,7)     109.13798        0.00015        0.90247     110.04045
	             B(6,2,8)     108.34420        0.00024        1.46962     109.81381
	            B(6,9,12)     110.17876        0.00006        0.39454     110.57330
	            B(6,9,13)     111.25235       -0.00010       -0.51965     110.73271
	            B(6,9,14)     110.83334       -0.00001       -0.11555     110.71778
	             B(7,2,8)     107.02375       -0.00009       -0.50172     106.52202
	            B(9,6,10)     108.94671       -0.00003       -3.09248     105.85423
	            B(9,6,11)     109.04046        0.00004        2.11876     111.15922
	           B(10,6,11)     107.02373       -0.00009       -0.50170     106.52203
	           B(12,9,13)     108.00343        0.00004        0.29855     108.30198
	           B(12,9,14)     108.17614       -0.00001        0.08917     108.26531
	           B(13,9,14)     108.29024        0.00002       -0.13296     108.15728
	[D(1,2,6,9)[119.90,120.10]     110.00000        0.00000        5.63064     115.63064
	          D(1,2,6,10)    -128.45486       -0.00006        2.11456    -126.34030
	          D(1,2,6,11)     -12.25203        0.00004        2.86003      -9.39200
	          D(2,6,9,12)     175.10740        0.00004        3.21555     178.32295
	          D(2,6,9,13)     -65.14064        0.00006        3.51106     -61.62958
	          D(2,6,9,14)      55.40901        0.00002        2.92212      58.33114
	           D(3,1,2,6)      55.40902        0.00002        2.92215      58.33117
	           D(3,1,2,7)     177.71449        0.00004        5.03242     182.74691
	           D(3,1,2,8)     -65.80277       -0.00007        3.82215     -61.98062
	           D(4,1,2,6)     175.10742        0.00004        3.21556     178.32298
	           D(4,1,2,7)     -62.58711        0.00006        5.32583     -57.26128
	           D(4,1,2,8)      53.89563       -0.00004        4.11556      58.01119
	           D(5,1,2,6)     -65.14062        0.00006        3.51105     -61.62956
	           D(5,1,2,7)      57.16485        0.00008        5.62133      62.78618
	           D(5,1,2,8)     173.64760       -0.00002        4.41106     178.05866
	           D(7,2,6,9)     -12.25203        0.00004        2.86003      -9.39200
	          D(7,2,6,10)     109.29311       -0.00002       -0.65605     108.63707
	          D(7,2,6,11)    -134.50406        0.00008        0.08942    -134.41463
	           D(8,2,6,9)    -128.45489       -0.00006        2.11461    -126.34028
	          D(8,2,6,10)      -6.90974       -0.00013       -1.40147      -8.31121
	          D(8,2,6,11)     109.29309       -0.00002       -0.65600     108.63709
	         D(10,6,9,12)      53.89559       -0.00004        4.11559      58.01119
	         D(10,6,9,13)     173.64755       -0.00002        4.41110     178.05865
	         D(10,6,9,14)     -65.80280       -0.00007        3.82216     -61.98063
	         D(11,6,9,12)     -62.58716        0.00006        5.32587     -57.26128
	         D(11,6,9,13)      57.16480        0.00008        5.62138      62.78619
	         D(11,6,9,14)     177.71445        0.00004        5.03245     182.74690
	-------------------------------------------------------------------------------

	                                 ==> Convergence Check <==                                  
    
	Measures of convergence in internal coordinates in au.
    
	Criteria marked as inactive (o), active & met (*), and active & unmet ( ).

	----------------------------------------------------------------------------------------------
	   Step    Total Energy     Delta E     Max Force     RMS Force      Max Disp      RMS Disp   
	----------------------------------------------------------------------------------------------
	  Convergence Criteria     1.00e-06 *    3.00e-04 *             o    1.20e-03 *             o
	----------------------------------------------------------------------------------------------
	     1    -155.46104845   -1.55e+02      8.57e-03      1.57e-03 o    9.83e-02      4.55e-02 o  ~
	----------------------------------------------------------------------------------------------

Next Geometry in Ang 
	Fragment 1 (Ang)

	    C   0.8735382652  -0.1553293839  -1.6472160195
	    C   0.8383944401  -0.2075437213  -0.1079735503
	    H   0.9632631207   0.8694719419  -1.9948713460
	    H   1.7195672477  -0.7197322856  -2.0291141560
	    H  -0.0354864176  -0.5770023715  -2.0672386173
	    C  -0.3347624045   0.6219109356   0.5087226469
	    H   0.7971180894  -1.2340857052   0.2492030909
	    H   1.7910056804   0.1975960674   0.2248262802
	    C  -1.3626773839  -0.2471135926   1.2579991507
	    H   0.0552170904   1.3213982666   1.2442466575
	    H  -0.8143820069   1.2198818042  -0.2629400109
	    H  -2.1413682683   0.3726921377   1.6934797163
	    H  -1.8303727701  -0.9581478449   0.5825405855
	    H  -0.8842418483  -0.8044568000   2.0577494380


    Structure for next step:
    Molecular point group: c1
    Full point group: C1

    Geometry (in Angstrom), charge = 0, multiplicity = 1:

    C       
    C             1    1.540529
    H             1    1.085879      2  110.717798
    H             1    1.086353      2  110.573282      3  119.991810
    H             1    1.086533      2  110.732725      3 -119.960728
    C             2    1.563524      1  113.155891      3   58.331165
    H             2    1.087689      1  111.159233      6  124.415747
    H             2    1.087365      1  105.854250      6 -120.311781
    C             6    1.540529      2  113.155901      1    dihedral
    H             6    1.087365      2  109.813808      9  118.029066
    H             6    1.087689      2  110.040464      9 -125.022636
    H             9    1.086353      6  110.573299     10   58.011185
    H             9    1.086533      6  110.732707     12  120.047469
    H             9    1.085879      6  110.717784     12 -119.991817

    dihedral  =  115.6306360599


Scratch directory: /tmp/
gradient() will perform analytic gradient computation.
   => Libint2 <=

    Primary   basis highest AM E, G, H:  5, 4, 3
    Auxiliary basis highest AM E, G, H:  6, 5, 4
    Onebody   basis highest AM E, G, H:  6, 5, 4
    Solid Harmonics ordering:            Gaussian

*** tstart() called on Barrys-MacBook-Pro.local
*** at Mon May 13 15:26:24 2024

   => Loading Basis Set <=

    Name: STO-3G
    Role: ORBITAL
    Keyword: BASIS
    atoms 1-2, 6, 9       entry C          line    61 file /Users/blink/psi4conda/share/psi4/basis/sto-3g.gbs 
    atoms 3-5, 7-8, 10-14 entry H          line    19 file /Users/blink/psi4conda/share/psi4/basis/sto-3g.gbs 


         ---------------------------------------------------------
                                   SCF
               by Justin Turney, Rob Parrish, Andy Simmonett
                          and Daniel G. A. Smith
                              RHF Reference
                        4 Threads,   3814 MiB Core
         ---------------------------------------------------------

  ==> Geometry <==

    Molecular point group: c1
    Full point group: C1

    Geometry (in Angstrom), charge = 0, multiplicity = 1:

       Center              X                  Y                   Z               Mass       
    ------------   -----------------  -----------------  -----------------  -----------------
         C            0.853445377230    -0.140431323232    -1.657828592839    12.000000000000
         C            0.853445377230    -0.140431323232    -0.117299851035    12.000000000000
         H            0.853445377230     0.875228138054    -2.041974908379     1.007825032230
         H            1.734325467816    -0.648839807358    -2.039578433473     1.007825032230
         H           -0.026932448033    -0.647913431259    -2.042470971993     1.007825032230
         C           -0.370060412306     0.614302191770     0.497531112709    12.000000000000
         H            0.902057768498    -1.153623735683     0.275313579163     1.007825032230
         H            1.776843382189     0.350948911868     0.179758627655     1.007825032230
         C           -1.309511734591    -0.306658611518     1.299086180446    12.000000000000
         H           -0.022975661700     1.368398908752     1.199836188911     1.007825032230
         H           -0.911592435807     1.144276834918    -0.282813250584     1.007825032230
         H           -2.126670311860     0.264217083236     1.730959727310     1.007825032230
         H           -1.731912981983    -1.076314049406     0.658960686107     1.007825032230
         H           -0.771866136438    -0.795254843684     2.106144708327     1.007825032230

  Running in c1 symmetry.

  Rotational constants: A =      0.58430  B =      0.12556  C =      0.12438 [cm^-1]
  Rotational constants: A =  17516.77798  B =   3764.27939  C =   3728.73730 [MHz]
  Nuclear repulsion =  130.441432650892580

  Charge       = 0
  Multiplicity = 1
  Electrons    = 34
  Nalpha       = 17
  Nbeta        = 17

  ==> Algorithm <==

  SCF Algorithm Type is DIRECT.
  DIIS enabled.
  MOM disabled.
  Fractional occupation disabled.
  Guess Type is READ.
  Energy threshold   = 1.00e-08
  Density threshold  = 1.00e-08
  Integral threshold = 1.00e-08

  ==> Primary Basis <==

  -AO BASIS SET INFORMATION:
    Name                   = STO-3G
    Blend                  = STO-3G
    Total number of shells = 22
    Number of primitives   = 66
    Number of AO           = 30
    Number of SO           = 30
    Maximum AM             = 1
    Spherical Harmonics    = TRUE

  -Contraction Scheme:
    Atom   Type   All Primitives // Shells:
   ------ ------ --------------------------
       1     C     6s 3p // 2s 1p 
       2     C     6s 3p // 2s 1p 
       3     H     3s // 1s 
       4     H     3s // 1s 
       5     H     3s // 1s 
       6     C     6s 3p // 2s 1p 
       7     H     3s // 1s 
       8     H     3s // 1s 
       9     C     6s 3p // 2s 1p 
      10     H     3s // 1s 
      11     H     3s // 1s 
      12     H     3s // 1s 
      13     H     3s // 1s 
      14     H     3s // 1s 

   => Loading Basis Set <=

    Name: (STO-3G AUX)
    Role: JKFIT
    Keyword: DF_BASIS_SCF
    atoms 1-2, 6, 9       entry C          line   198 file /Users/blink/psi4conda/share/psi4/basis/def2-universal-jkfit.gbs 
    atoms 3-5, 7-8, 10-14 entry H          line    18 file /Users/blink/psi4conda/share/psi4/basis/def2-universal-jkfit.gbs 

   => Loading Basis Set <=

    Name: STO-3G
    Role: ORBITAL
    Keyword: BASIS
    atoms 1-2, 6, 9       entry C          line    61 file /Users/blink/psi4conda/share/psi4/basis/sto-3g.gbs 
    atoms 3-5, 7-8, 10-14 entry H          line    19 file /Users/blink/psi4conda/share/psi4/basis/sto-3g.gbs 

  Reading orbitals from file /tmp/butane_eclipsed_2.default.72198.180.npy, no projection.

  Starting with a DF guess...

  ==> Integral Setup <==

  DFHelper Memory: AOs need 0.005 GiB; user supplied 2.794 GiB. 
  Using in-core AOs.

  ==> MemDFJK: Density-Fitted J/K Matrices <==

    J tasked:                   Yes
    K tasked:                   Yes
    wK tasked:                   No
    OpenMP threads:               4
    Memory [MiB]:              2861
    Algorithm:                 Core
    Schwarz Cutoff:           1E-08
    Mask sparsity (%):       0.6667
    Fitting Condition:        1E-10

   => Auxiliary Basis Set <=

  -AO BASIS SET INFORMATION:
    Name                   = (STO-3G AUX)
    Blend                  = DEF2-UNIVERSAL-JKFIT
    Total number of shells = 160
    Number of primitives   = 212
    Number of AO           = 556
    Number of SO           = 480
    Maximum AM             = 4
    Spherical Harmonics    = TRUE

  -Contraction Scheme:
    Atom   Type   All Primitives // Shells:
   ------ ------ --------------------------
       1     C     14s 10p 6d 2f 1g // 10s 8p 5d 1f 1g 
       2     C     14s 10p 6d 2f 1g // 10s 8p 5d 1f 1g 
       3     H     4s 2p 2d // 2s 2p 2d 
       4     H     4s 2p 2d // 2s 2p 2d 
       5     H     4s 2p 2d // 2s 2p 2d 
       6     C     14s 10p 6d 2f 1g // 10s 8p 5d 1f 1g 
       7     H     4s 2p 2d // 2s 2p 2d 
       8     H     4s 2p 2d // 2s 2p 2d 
       9     C     14s 10p 6d 2f 1g // 10s 8p 5d 1f 1g 
      10     H     4s 2p 2d // 2s 2p 2d 
      11     H     4s 2p 2d // 2s 2p 2d 
      12     H     4s 2p 2d // 2s 2p 2d 
      13     H     4s 2p 2d // 2s 2p 2d 
      14     H     4s 2p 2d // 2s 2p 2d 

  Minimum eigenvalue in the overlap matrix is 2.0146890064E-01.
  Reciprocal condition number of the overlap matrix is 7.8011470063E-02.
    Using symmetric orthogonalization.

  ==> Pre-Iterations <==

  SCF Guess: Orbitals guess was supplied from a previous computation.

   -------------------------------------------------------
    Irrep   Nso     Nmo     Nalpha   Nbeta   Ndocc  Nsocc
   -------------------------------------------------------
     A         30      30      17      17      17       0
   -------------------------------------------------------
    Total      30      30      17      17      17       0
   -------------------------------------------------------

  ==> Iterations <==

                           Total Energy        Delta E     RMS |[F,P]|

   @DF-RHF iter   0:  -155.43086916811774   -1.55431e+02   4.41172e-03 
   @DF-RHF iter   1:  -155.45976892849669   -2.88998e-02   1.02821e-03 DIIS/ADIIS
   @DF-RHF iter   2:  -155.46074394579307   -9.75017e-04   3.13273e-04 DIIS/ADIIS
   @DF-RHF iter   3:  -155.46084520781699   -1.01262e-04   3.76182e-05 DIIS
   @DF-RHF iter   4:  -155.46084629864484   -1.09083e-06   2.57720e-06 DIIS
   @DF-RHF iter   5:  -155.46084630537209   -6.72725e-09   4.88242e-07 DIIS
   @DF-RHF iter   6:  -155.46084630559037   -2.18279e-10   7.64868e-08 DIIS
   @DF-RHF iter   7:  -155.46084630559605   -5.68434e-12   1.10793e-08 DIIS
   @DF-RHF iter   8:  -155.46084630559591    1.42109e-13   2.17802e-09 DIIS

  DF guess converged.

  ==> DirectJK: Integral-Direct J/K Matrices <==

    J tasked:                  Yes
    K tasked:                  Yes
    wK tasked:                  No
    Integrals threads:           4
    Screening Type:           CSAM
    Screening Cutoff:        1E-08
    Incremental Fock:           No

   @RHF iter   9:  -155.46033188568632   -1.55460e+02   4.36196e-06 DIIS
   @RHF iter  10:  -155.46033189401624   -8.32992e-09   7.31571e-07 DIIS
   @RHF iter  11:  -155.46033189428510   -2.68869e-10   1.20038e-07 DIIS
   @RHF iter  12:  -155.46033189429662   -1.15108e-11   2.05644e-08 DIIS
   @RHF iter  13:  -155.46033189429710   -4.83169e-13   1.03296e-09 DIIS
  Energy and wave function converged.


  ==> Post-Iterations <==

    Orbital Energies [Eh]
    ---------------------

    Doubly Occupied:                                                      

       1A    -11.037558     2A    -11.037193     3A    -11.031685  
       4A    -11.031681     5A     -1.024173     6A     -0.942775  
       7A     -0.829044     8A     -0.756596     9A     -0.596418  
      10A     -0.575023    11A     -0.551298    12A     -0.520936  
      13A     -0.480455    14A     -0.477100    15A     -0.436897  
      16A     -0.418462    17A     -0.415410  

    Virtual:                                                              

      18A      0.601749    19A      0.606602    20A      0.639749  
      21A      0.682764    22A      0.685583    23A      0.711589  
      24A      0.742118    25A      0.749809    26A      0.774141  
      27A      0.793802    28A      0.794161    29A      0.827097  
      30A      0.840375  

    Final Occupation by Irrep:
              A 
    DOCC [    17 ]
    NA   [    17 ]
    NB   [    17 ]

  @RHF Final Energy:  -155.46033189429710

   => Energetics <=

    Nuclear Repulsion Energy =            130.4414326508925797
    One-Electron Energy =                -467.4781239903689425
    Two-Electron Energy =                 181.5763594451792642
    Total Energy =                       -155.4603318942970986

Computation Completed


Properties will be evaluated at   0.000000,   0.000000,   0.000000 [a0]

Properties computed using the SCF density matrix


 Multipole Moments:

 ------------------------------------------------------------------------------------
     Multipole            Electronic (a.u.)      Nuclear  (a.u.)        Total (a.u.)
 ------------------------------------------------------------------------------------

 L = 1.  Multiply by 2.5417464519 to convert [e a0] to [Debye]
 Dipole X            :          0.3158956           -0.3049382            0.0109575
 Dipole Y            :          0.3096782           -0.2989365            0.0107417
 Dipole Z            :          0.2484838           -0.2398647            0.0086191
 Magnitude           :                                                    0.0175994

 ------------------------------------------------------------------------------------

*** tstop() called on Barrys-MacBook-Pro.local at Mon May 13 15:26:25 2024
Module time:
	user time   =       2.87 seconds =       0.05 minutes
	system time =       0.04 seconds =       0.00 minutes
	total time  =          1 seconds =       0.02 minutes
Total time:
	user time   =    1003.01 seconds =      16.72 minutes
	system time =      16.70 seconds =       0.28 minutes
	total time  =       2517 seconds =      41.95 minutes

*** tstart() called on Barrys-MacBook-Pro.local
*** at Mon May 13 15:26:25 2024


         ------------------------------------------------------------
                                   SCF GRAD                          
                          Rob Parrish, Justin Turney,                
                       Andy Simmonett, and Alex Sokolov              
         ------------------------------------------------------------

  ==> Geometry <==

    Molecular point group: c1
    Full point group: C1

    Geometry (in Angstrom), charge = 0, multiplicity = 1:

       Center              X                  Y                   Z               Mass       
    ------------   -----------------  -----------------  -----------------  -----------------
         C            0.853445377230    -0.140431323232    -1.657828592839    12.000000000000
         C            0.853445377230    -0.140431323232    -0.117299851035    12.000000000000
         H            0.853445377230     0.875228138054    -2.041974908379     1.007825032230
         H            1.734325467816    -0.648839807358    -2.039578433473     1.007825032230
         H           -0.026932448033    -0.647913431259    -2.042470971993     1.007825032230
         C           -0.370060412306     0.614302191770     0.497531112709    12.000000000000
         H            0.902057768498    -1.153623735683     0.275313579163     1.007825032230
         H            1.776843382189     0.350948911868     0.179758627655     1.007825032230
         C           -1.309511734591    -0.306658611518     1.299086180446    12.000000000000
         H           -0.022975661700     1.368398908752     1.199836188911     1.007825032230
         H           -0.911592435807     1.144276834918    -0.282813250584     1.007825032230
         H           -2.126670311860     0.264217083236     1.730959727310     1.007825032230
         H           -1.731912981983    -1.076314049406     0.658960686107     1.007825032230
         H           -0.771866136438    -0.795254843684     2.106144708327     1.007825032230

  Nuclear repulsion =  130.441432650892580

  ==> Basis Set <==

  -AO BASIS SET INFORMATION:
    Name                   = STO-3G
    Blend                  = STO-3G
    Total number of shells = 22
    Number of primitives   = 66
    Number of AO           = 30
    Number of SO           = 30
    Maximum AM             = 1
    Spherical Harmonics    = TRUE

  -Contraction Scheme:
    Atom   Type   All Primitives // Shells:
   ------ ------ --------------------------
       1     C     6s 3p // 2s 1p 
       2     C     6s 3p // 2s 1p 
       3     H     3s // 1s 
       4     H     3s // 1s 
       5     H     3s // 1s 
       6     C     6s 3p // 2s 1p 
       7     H     3s // 1s 
       8     H     3s // 1s 
       9     C     6s 3p // 2s 1p 
      10     H     3s // 1s 
      11     H     3s // 1s 
      12     H     3s // 1s 
      13     H     3s // 1s 
      14     H     3s // 1s 

  ==> DirectJKGrad: Integral-Direct SCF Gradients <==

    Gradient:                    1
    J tasked:                  Yes
    K tasked:                  Yes
    wK tasked:                  No
    Integrals threads:           4
    Schwarz Cutoff:          1E-08


  -Nuclear Gradient:
     Atom            X                  Y                   Z
    ------   -----------------  -----------------  -----------------
       1       -1.375508815176     0.480372409399     5.727971335105
       2       -4.054136598200     1.561203579339    -1.369101579422
       3       -0.182530007394    -1.736079544341     1.232966949085
       4       -1.629001593274     0.910291997425     1.103043538076
       5        1.357907968319     0.965982159565     1.275706365065
       6        1.262720185355    -4.297678549722    -0.826627435640
       7       -0.563380503457     2.039751852014    -0.744465096224
       8       -2.061367482964    -0.798536424250    -0.675913597117
       9        4.167267516476     2.256437358536    -3.531972957722
      10       -0.555818057368    -1.767137445890    -1.382768132671
      11        1.222842100229    -1.393269910282     1.263198180181
      12        1.730583824207    -0.810708658752    -1.023139071829
      13        1.206938306599     1.548382327187     0.741805108459
      14       -0.526516843353     1.040988849772    -1.790703605348


  -Core Hamiltonian Gradient:
     Atom            X                  Y                   Z
    ------   -----------------  -----------------  -----------------
       1        3.013604566056    -0.877297442895   -10.651892640084
       2        7.149308537235    -2.788522911511     2.114313318146
       3        0.349586737093     5.048347418124    -3.049022242340
       4        4.530643441398    -2.551851947858    -2.748786576249
       5       -4.122765986591    -2.728130448584    -3.110849875462
       6       -2.436635907724     7.408436260948     1.592674250314
       7        1.222508203129    -5.807499411176     2.261414288667
       8        5.639426887881     2.371256447737     1.718084353586
       9       -7.839798675840    -3.853901142599     6.855607995501
      10        1.582517428903     4.708544162987     3.962708079106
      11       -3.309410684178     3.761672821501    -3.902972269535
      12       -4.633894533983     2.450632421853     2.667570766500
      13       -3.043933201362    -4.297512635613    -2.526486756731
      14        1.898843187982    -2.844173592914     4.817637308583


  -Overlap Gradient:
     Atom            X                  Y                   Z
    ------   -----------------  -----------------  -----------------
       1       -0.003183588013    -0.001820313693    -0.045874691586
       2        0.051230794311    -0.015929685997     0.022311510212
       3        0.000199188106    -0.162657438617     0.063014589253
       4       -0.141106376186     0.081181746256     0.062732207297
       5        0.140668650288     0.080742088469     0.062504142755
       6       -0.010013979298     0.056335357000     0.010109804887
       7       -0.009935017526     0.162212986878    -0.065432737624
       8       -0.147703592974    -0.076037077574    -0.043992040265
       9       -0.028643398787    -0.029380390693     0.020839440105
      10       -0.051421741343    -0.119169026323    -0.112640262375
      11        0.085613150292    -0.088024402984     0.124961169343
      12        0.131665815054    -0.090436489501    -0.070158224625
      13        0.067867699986     0.123689819865     0.101530889799
      14       -0.085237603909     0.079292826913    -0.129905797176


  -Coulomb Gradient:
     Atom            X                  Y                   Z
    ------   -----------------  -----------------  -----------------
       1       -1.638542330472     0.398966948403     4.890408946225
       2       -3.052329356196     1.209817785970    -0.729530672854
       3       -0.167139467361    -3.455216422427     1.871632977992
       4       -3.025346883215     1.713068932500     1.700658815630
       5        2.888630015068     1.833543421491     1.890721585515
       6        1.160548810731    -3.064360632636    -0.758542090129
       7       -0.667139902364     3.908927245954    -1.571653816418
       8       -3.708342956381    -1.640830721882    -1.085511194782
       9        3.653746887137     1.576569411415    -3.305249904305
      10       -1.075614587979    -3.048967788397    -2.677557517710
      11        2.162306392244    -2.443189976704     2.747751727602
      12        3.018947777682    -1.719341838825    -1.705693736255
      13        1.897332486983     2.858221089151     1.873924428626
      14       -1.447056885875     1.872792545986    -3.141359549137


  -Exchange Gradient:
     Atom            X                  Y                   Z
    ------   -----------------  -----------------  -----------------
       1        0.009228619532     0.006691205292     0.080573179763
       2       -0.096876123634     0.022608173583    -0.038110574103
       3       -0.000302071633     0.305447782911    -0.119497635548
       4        0.265058586615    -0.152651459913    -0.117746497082
       5       -0.264898902649    -0.152383579270    -0.116829931715
       6        0.015713196871    -0.102173868726    -0.025732575913
       7        0.019450535426    -0.302354455992     0.123486625300
       8        0.278778997372     0.143473832664     0.081573569454
       9        0.052146637942     0.053476403613    -0.032295066800
      10        0.096134863366     0.224060880297     0.213334281577
      11       -0.158857350825     0.165691553020    -0.233144041648
      12       -0.247388705832     0.169973524703     0.131645762254
      13       -0.127525834409    -0.232317398883    -0.191852021854
      14        0.159337551858    -0.149542593299     0.244594926315


  -Total Gradient:
     Atom            X                  Y                   Z
    ------   -----------------  -----------------  -----------------
       1        0.005598451928     0.006912806507     0.001186129423
       2       -0.002802746484    -0.010823058616    -0.000117998020
       3       -0.000185621188    -0.000158204350    -0.000905361558
       4        0.000247175339     0.000039268410    -0.000098512328
       5       -0.000458255566    -0.000246358328     0.001252286157
       6       -0.007667694065     0.000558566864    -0.008118046480
       7        0.001503315207     0.001038217678     0.003349263700
       8        0.000791852933    -0.000673943305    -0.005758909124
       9        0.004718966926     0.003201640273     0.006929506780
      10       -0.004202094421    -0.002669217326     0.003076447926
      11        0.002493607762     0.002880084550    -0.000205234057
      12       -0.000085822871     0.000118959479     0.000225496045
      13        0.000679457796     0.000463201707    -0.001078351701
      14       -0.000630593297    -0.000641963542     0.000263283237


*** tstop() called on Barrys-MacBook-Pro.local at Mon May 13 15:26:25 2024
Module time:
	user time   =       0.47 seconds =       0.01 minutes
	system time =       0.01 seconds =       0.00 minutes
	total time  =          0 seconds =       0.00 minutes
Total time:
	user time   =    1003.48 seconds =      16.72 minutes
	system time =      16.71 seconds =       0.28 minutes
	total time  =       2517 seconds =      41.95 minutes

    			-----------------------------------------

    			 OPTKING 3.0: for geometry optimizations 

    			     By R.A. King, Bethel University     

    			        with contributions from          

    			    A.V. Copan, J. Cayton, A. Heide      

    			-----------------------------------------

    
	                            ===> Fragment 1 <== 

	 Z (Atomic Numbers)          Masses                          Geom                  
	       6.000000            12.000000          1.61277803 -0.26537674 -3.13284200   
	       6.000000            12.000000          1.61277803 -0.26537674 -0.22166459   
	       1.000000             1.007825          1.61277803  1.65394148 -3.85877333   
	       1.000000             1.007825          3.27740015 -1.22612954 -3.85424465   
	       1.000000             1.007825         -0.05089495 -1.22437894 -3.85971076   
	       6.000000            12.000000         -0.69931283  1.16086290  0.94019754   
	       1.000000             1.007825          1.70464213 -2.18003291  0.52026726   
	       1.000000             1.007825          3.35774736  0.66319733  0.33969457   
	       6.000000            12.000000         -2.47461854 -0.57950079  2.45491709   
	       1.000000             1.007825         -0.04341771  2.58589917  2.26736179   
	       1.000000             1.007825         -1.72266004  2.16236983 -0.53443959   
	       1.000000             1.007825         -4.01882445  0.49929792  3.27103982   
	       1.000000             1.007825         -3.27284121 -2.03393878  1.24525522   
	       1.000000             1.007825         -1.45861560 -1.50281385  3.98003668   

	 - Coordinate -           - BOHR/RAD -       - ANG/DEG -
	 R(1,2)           =         2.911177           1.540529
	 R(1,3)           =         2.052013           1.085879
	 R(1,4)           =         2.052909           1.086353
	 R(1,5)           =         2.053249           1.086533
	 R(2,6)           =         2.954631           1.563524
	 R(2,7)           =         2.055434           1.087689
	 R(2,8)           =         2.054822           1.087365
	 R(6,9)           =         2.911177           1.540529
	 R(6,10)          =         2.054822           1.087365
	 R(6,11)          =         2.055434           1.087689
	 R(9,12)          =         2.052909           1.086353
	 R(9,13)          =         2.053249           1.086533
	 R(9,14)          =         2.052013           1.085879
	 B(1,2,6)         =         1.974943         113.155891
	 B(1,2,7)         =         1.940095         111.159233
	 B(1,2,8)         =         1.847505         105.854250
	 B(2,1,3)         =         1.932390         110.717798
	 B(2,1,4)         =         1.929868         110.573282
	 B(2,1,5)         =         1.932651         110.732725
	 B(2,6,9)         =         1.974943         113.155901
	 B(2,6,10)        =         1.916613         109.813808
	 B(2,6,11)        =         1.920568         110.040464
	 B(3,1,4)         =         1.889586         108.265309
	 B(3,1,5)         =         1.887700         108.157271
	 B(4,1,5)         =         1.890226         108.301974
	 B(6,2,7)         =         1.920568         110.040450
	 B(6,2,8)         =         1.916613         109.813813
	 B(6,9,12)        =         1.929868         110.573299
	 B(6,9,13)        =         1.932650         110.732707
	 B(6,9,14)        =         1.932390         110.717784
	 B(7,2,8)         =         1.859160         106.522024
	 B(9,6,10)        =         1.847505         105.854232
	 B(9,6,11)        =         1.940094         111.159221
	 B(10,6,11)       =         1.859160         106.522033
	 B(12,9,13)       =         1.890226         108.301979
	 B(12,9,14)       =         1.889586         108.265313
	 B(13,9,14)       =         1.887701         108.157277
	[D(1,2,6,9)[119.90,120.10]=         2.018135         115.630636
	 D(1,2,6,10)      =        -2.205054        -126.340298
	 D(1,2,6,11)      =        -0.163921          -9.392000
	 D(2,6,9,12)      =         3.112323         178.322954
	 D(2,6,9,13)      =        -1.075639         -61.629577
	 D(2,6,9,14)      =         1.018070          58.331137
	 D(3,1,2,6)       =         1.018071          58.331165
	 D(3,1,2,7)       =         3.189535         182.746912
	 D(3,1,2,8)       =        -1.081766         -61.980615
	 D(4,1,2,6)       =         3.112323         178.322975
	 D(4,1,2,7)       =        -0.999398         -57.261278
	 D(4,1,2,8)       =         1.012486          58.011195
	 D(5,1,2,6)       =        -1.075639         -61.629562
	 D(5,1,2,7)       =         1.095826          62.786184
	 D(5,1,2,8)       =         3.107710         178.058657
	 D(7,2,6,9)       =        -0.163921          -9.391997
	 D(7,2,6,10)      =         1.896075         108.637069
	 D(7,2,6,11)      =        -2.345978        -134.414633
	 D(8,2,6,9)       =        -2.205054        -126.340279
	 D(8,2,6,10)      =        -0.145058          -8.311213
	 D(8,2,6,11)      =         1.896075         108.637085
	 D(10,6,9,12)     =         1.012486          58.011185
	 D(10,6,9,13)     =         3.107710         178.058654
	 D(10,6,9,14)     =        -1.081766         -61.980632
	 D(11,6,9,12)     =        -0.999398         -57.261283
	 D(11,6,9,13)     =         1.095826          62.786186
	 D(11,6,9,14)     =         3.189535         182.746900


	        --- Internal Coordinate Step in ANG or DEG, aJ/ANG or AJ/DEG ---
	-------------------------------------------------------------------------------
	           Coordinate      Previous         Force          Change          New 
	           ----------      --------        ------          ------        ------
	               R(1,2)       1.54053        0.01182        0.00151       1.54204
	               R(1,3)       1.08588       -0.00142       -0.00019       1.08569
	               R(1,4)       1.08635       -0.00179       -0.00015       1.08620
	               R(1,5)       1.08653       -0.00035        0.00018       1.08671
	               R(2,6)       1.56352       -0.04936       -0.00482       1.55871
	               R(2,7)       1.08769       -0.00255       -0.00044       1.08725
	               R(2,8)       1.08736        0.00993        0.00097       1.08834
	               R(6,9)       1.54053        0.01182        0.00151       1.54204
	              R(6,10)       1.08736        0.00993        0.00097       1.08834
	              R(6,11)       1.08769       -0.00255       -0.00044       1.08725
	              R(9,12)       1.08635       -0.00179       -0.00015       1.08620
	              R(9,13)       1.08653       -0.00035        0.00018       1.08671
	              R(9,14)       1.08588       -0.00142       -0.00019       1.08569
	             B(1,2,6)     113.15589       -0.00004       -0.24393     112.91196
	             B(1,2,7)     111.15923       -0.00010        0.00935     111.16859
	             B(1,2,8)     105.85425        0.00024        0.50877     106.36302
	             B(2,1,3)     110.71780       -0.00013       -0.41501     110.30278
	             B(2,1,4)     110.57328       -0.00001       -0.00643     110.56685
	             B(2,1,5)     110.73273        0.00017        0.47957     111.21230
	             B(2,6,9)     113.15590       -0.00004       -0.24393     112.91197
	            B(2,6,10)     109.81381       -0.00023       -0.42552     109.38829
	            B(2,6,11)     110.04046        0.00011        0.05630     110.09677
	             B(3,1,4)     108.26531        0.00004        0.00796     108.27326
	             B(3,1,5)     108.15727       -0.00001       -0.01941     108.13786
	             B(4,1,5)     108.30197       -0.00006       -0.05049     108.25148
	             B(6,2,7)     110.04045        0.00011        0.05631     110.09676
	             B(6,2,8)     109.81381       -0.00023       -0.42552     109.38829
	            B(6,9,12)     110.57330       -0.00001       -0.00644     110.56686
	            B(6,9,13)     110.73271        0.00017        0.47958     111.21229
	            B(6,9,14)     110.71778       -0.00013       -0.41501     110.30278
	             B(7,2,8)     106.52202        0.00002        0.11891     106.64093
	            B(9,6,10)     105.85423        0.00024        0.50878     106.36301
	            B(9,6,11)     111.15922       -0.00010        0.00936     111.16858
	           B(10,6,11)     106.52203        0.00002        0.11890     106.64094
	           B(12,9,13)     108.30198       -0.00006       -0.05050     108.25148
	           B(12,9,14)     108.26531        0.00004        0.00795     108.27327
	           B(13,9,14)     108.15728       -0.00001       -0.01941     108.13787
	[D(1,2,6,9)[119.90,120.10]     115.63064        0.00000        2.42538     118.05602
	          D(1,2,6,10)    -126.34030        0.00013        2.62462    -123.71568
	          D(1,2,6,11)      -9.39200        0.00008        2.55072      -6.84128
	          D(2,6,9,12)     178.32295       -0.00008        0.12267     178.44563
	          D(2,6,9,13)     -61.62958       -0.00005        0.37002     -61.25955
	          D(2,6,9,14)      58.33114       -0.00004        0.38563      58.71676
	           D(3,1,2,6)      58.33117       -0.00004        0.38561      58.71678
	           D(3,1,2,7)     182.74691        0.00000        0.28224     183.02916
	           D(3,1,2,8)     -61.98062        0.00011        0.71614     -61.26447
	           D(4,1,2,6)     178.32298       -0.00008        0.12267     178.44564
	           D(4,1,2,7)     -57.26128       -0.00004        0.01930     -57.24198
	           D(4,1,2,8)      58.01119        0.00006        0.45320      58.46439
	           D(5,1,2,6)     -61.62956       -0.00005        0.37002     -61.25954
	           D(5,1,2,7)      62.78618       -0.00001        0.26665      63.05283
	           D(5,1,2,8)     178.05866        0.00009        0.70055     178.75921
	           D(7,2,6,9)      -9.39200        0.00008        2.55072      -6.84127
	          D(7,2,6,10)     108.63707        0.00020        2.74996     111.38703
	          D(7,2,6,11)    -134.41463        0.00015        2.67606    -131.73857
	           D(8,2,6,9)    -126.34028        0.00013        2.62461    -123.71567
	          D(8,2,6,10)      -8.31121        0.00025        2.82384      -5.48737
	          D(8,2,6,11)     108.63709        0.00020        2.74995     111.38703
	         D(10,6,9,12)      58.01119        0.00006        0.45320      58.46439
	         D(10,6,9,13)     178.05865        0.00009        0.70055     178.75920
	         D(10,6,9,14)     -61.98063        0.00011        0.71615     -61.26448
	         D(11,6,9,12)     -57.26128       -0.00004        0.01930     -57.24198
	         D(11,6,9,13)      62.78619       -0.00001        0.26665      63.05283
	         D(11,6,9,14)     182.74690        0.00000        0.28225     183.02915
	-------------------------------------------------------------------------------

	                                 ==> Convergence Check <==                                  
    
	Measures of convergence in internal coordinates in au.
    
	Criteria marked as inactive (o), active & met (*), and active & unmet ( ).

	----------------------------------------------------------------------------------------------
	   Step    Total Energy     Delta E     Max Force     RMS Force      Max Disp      RMS Disp   
	----------------------------------------------------------------------------------------------
	  Convergence Criteria     1.00e-06 *    3.00e-04 *             o    1.20e-03 *             o
	----------------------------------------------------------------------------------------------
	     2    -155.46033189    7.17e-04      5.99e-03      1.57e-03 o    4.93e-02      1.81e-02 o  ~
	----------------------------------------------------------------------------------------------

Next Geometry in Ang 
	Fragment 1 (Ang)

	    C   0.8596657524  -0.1299778583  -1.6609168565
	    C   0.8423744762  -0.1518566366  -0.1191276566
	    H   0.8826900067   0.8933225711  -2.0229117780
	    H   1.7375471569  -0.6451835167  -2.0400280739
	    H  -0.0226334676  -0.6140986895  -2.0709463861
	    C  -0.3773702948   0.6077085204   0.4849005326
	    H   0.8728436346  -1.1706143135   0.2594416751
	    H   1.7636458328   0.3286483853   0.2046821300
	    C  -1.3048483033  -0.3064425431   1.3107356891
	    H  -0.0217591759   1.3789542385   1.1654881653
	    H  -0.9276188343   1.1169172305  -0.3025277873
	    H  -2.1248897349   0.2654645851   1.7353440596
	    H  -1.7245448283  -1.0986913260   0.6966137117
	    H  -0.7530615929  -0.7662457041   2.1248773774


    Structure for next step:
    Molecular point group: c1
    Full point group: C1

    Geometry (in Angstrom), charge = 0, multiplicity = 1:

    C       
    C             1    1.542041
    H             1    1.085686      2  110.302784
    H             1    1.086203      2  110.566850      3  119.728864
    H             1    1.086715      2  111.212298      3 -119.976322
    C             2    1.558707      1  112.911961      3   58.716779
    H             2    1.087249      1  111.168585      6  124.312378
    H             2    1.088338      1  106.363020      6 -119.981250
    C             6    1.542041      2  112.911966      1    dihedral
    H             6    1.088338      2  109.388285      9  118.228300
    H             6    1.087249      2  110.096767      9 -124.897295
    H             9    1.086203      6  110.566858     10   58.464385
    H             9    1.086715      6  111.212292     12  120.294817
    H             9    1.085686      6  110.302778     12 -119.728867

    dihedral  =  118.0560190675


Scratch directory: /tmp/
gradient() will perform analytic gradient computation.
   => Libint2 <=

    Primary   basis highest AM E, G, H:  5, 4, 3
    Auxiliary basis highest AM E, G, H:  6, 5, 4
    Onebody   basis highest AM E, G, H:  6, 5, 4
    Solid Harmonics ordering:            Gaussian

*** tstart() called on Barrys-MacBook-Pro.local
*** at Mon May 13 15:26:26 2024

   => Loading Basis Set <=

    Name: STO-3G
    Role: ORBITAL
    Keyword: BASIS
    atoms 1-2, 6, 9       entry C          line    61 file /Users/blink/psi4conda/share/psi4/basis/sto-3g.gbs 
    atoms 3-5, 7-8, 10-14 entry H          line    19 file /Users/blink/psi4conda/share/psi4/basis/sto-3g.gbs 


         ---------------------------------------------------------
                                   SCF
               by Justin Turney, Rob Parrish, Andy Simmonett
                          and Daniel G. A. Smith
                              RHF Reference
                        4 Threads,   3814 MiB Core
         ---------------------------------------------------------

  ==> Geometry <==

    Molecular point group: c1
    Full point group: C1

    Geometry (in Angstrom), charge = 0, multiplicity = 1:

       Center              X                  Y                   Z               Mass       
    ------------   -----------------  -----------------  -----------------  -----------------
         C            0.845106422331    -0.136543720928    -1.667360432527    12.000000000000
         C            0.845106422331    -0.136543720928    -0.125319056191    12.000000000000
         H            0.845106422331     0.881690909961    -2.044073114367     1.007825032230
         H            1.728226444940    -0.640856297821    -2.048943708462     1.007825032230
         H           -0.032460806514    -0.642723959006    -2.060560678537     1.007825032230
         C           -0.381885170265     0.608986802864     0.481510785734    12.000000000000
         H            0.898684218488    -1.149010606585     0.267301037528     1.007825032230
         H            1.760760075606     0.365500237102     0.181289844639     1.007825032230
         C           -1.283082215622    -0.310151306496     1.330581071498    12.000000000000
         H           -0.033267798234     1.396383104379     1.147056985261     1.007825032230
         H           -0.950108615579     1.096562485645    -0.306843445910     1.007825032230
         H           -2.108933532962     0.252569994887     1.756200995616     1.007825032230
         H           -1.694651245715    -1.118771465411     0.732506258249     1.007825032230
         H           -0.713948514985    -0.747922077111     2.144926079782     1.007825032230

  Running in c1 symmetry.

  Rotational constants: A =      0.59190  B =      0.12498  C =      0.12442 [cm^-1]
  Rotational constants: A =  17744.80865  B =   3746.95453  C =   3729.94354 [MHz]
  Nuclear repulsion =  130.484009534291744

  Charge       = 0
  Multiplicity = 1
  Electrons    = 34
  Nalpha       = 17
  Nbeta        = 17

  ==> Algorithm <==

  SCF Algorithm Type is DIRECT.
  DIIS enabled.
  MOM disabled.
  Fractional occupation disabled.
  Guess Type is READ.
  Energy threshold   = 1.00e-08
  Density threshold  = 1.00e-08
  Integral threshold = 1.00e-08

  ==> Primary Basis <==

  -AO BASIS SET INFORMATION:
    Name                   = STO-3G
    Blend                  = STO-3G
    Total number of shells = 22
    Number of primitives   = 66
    Number of AO           = 30
    Number of SO           = 30
    Maximum AM             = 1
    Spherical Harmonics    = TRUE

  -Contraction Scheme:
    Atom   Type   All Primitives // Shells:
   ------ ------ --------------------------
       1     C     6s 3p // 2s 1p 
       2     C     6s 3p // 2s 1p 
       3     H     3s // 1s 
       4     H     3s // 1s 
       5     H     3s // 1s 
       6     C     6s 3p // 2s 1p 
       7     H     3s // 1s 
       8     H     3s // 1s 
       9     C     6s 3p // 2s 1p 
      10     H     3s // 1s 
      11     H     3s // 1s 
      12     H     3s // 1s 
      13     H     3s // 1s 
      14     H     3s // 1s 

   => Loading Basis Set <=

    Name: (STO-3G AUX)
    Role: JKFIT
    Keyword: DF_BASIS_SCF
    atoms 1-2, 6, 9       entry C          line   198 file /Users/blink/psi4conda/share/psi4/basis/def2-universal-jkfit.gbs 
    atoms 3-5, 7-8, 10-14 entry H          line    18 file /Users/blink/psi4conda/share/psi4/basis/def2-universal-jkfit.gbs 

   => Loading Basis Set <=

    Name: STO-3G
    Role: ORBITAL
    Keyword: BASIS
    atoms 1-2, 6, 9       entry C          line    61 file /Users/blink/psi4conda/share/psi4/basis/sto-3g.gbs 
    atoms 3-5, 7-8, 10-14 entry H          line    19 file /Users/blink/psi4conda/share/psi4/basis/sto-3g.gbs 

  Reading orbitals from file /tmp/butane_eclipsed_2.default.72198.180.npy, no projection.

  Starting with a DF guess...

  ==> Integral Setup <==

  DFHelper Memory: AOs need 0.005 GiB; user supplied 2.794 GiB. 
  Using in-core AOs.

  ==> MemDFJK: Density-Fitted J/K Matrices <==

    J tasked:                   Yes
    K tasked:                   Yes
    wK tasked:                   No
    OpenMP threads:               4
    Memory [MiB]:              2861
    Algorithm:                 Core
    Schwarz Cutoff:           1E-08
    Mask sparsity (%):       0.6667
    Fitting Condition:        1E-10

   => Auxiliary Basis Set <=

  -AO BASIS SET INFORMATION:
    Name                   = (STO-3G AUX)
    Blend                  = DEF2-UNIVERSAL-JKFIT
    Total number of shells = 160
    Number of primitives   = 212
    Number of AO           = 556
    Number of SO           = 480
    Maximum AM             = 4
    Spherical Harmonics    = TRUE

  -Contraction Scheme:
    Atom   Type   All Primitives // Shells:
   ------ ------ --------------------------
       1     C     14s 10p 6d 2f 1g // 10s 8p 5d 1f 1g 
       2     C     14s 10p 6d 2f 1g // 10s 8p 5d 1f 1g 
       3     H     4s 2p 2d // 2s 2p 2d 
       4     H     4s 2p 2d // 2s 2p 2d 
       5     H     4s 2p 2d // 2s 2p 2d 
       6     C     14s 10p 6d 2f 1g // 10s 8p 5d 1f 1g 
       7     H     4s 2p 2d // 2s 2p 2d 
       8     H     4s 2p 2d // 2s 2p 2d 
       9     C     14s 10p 6d 2f 1g // 10s 8p 5d 1f 1g 
      10     H     4s 2p 2d // 2s 2p 2d 
      11     H     4s 2p 2d // 2s 2p 2d 
      12     H     4s 2p 2d // 2s 2p 2d 
      13     H     4s 2p 2d // 2s 2p 2d 
      14     H     4s 2p 2d // 2s 2p 2d 

  Minimum eigenvalue in the overlap matrix is 2.0128624899E-01.
  Reciprocal condition number of the overlap matrix is 7.7880044640E-02.
    Using symmetric orthogonalization.

  ==> Pre-Iterations <==

  SCF Guess: Orbitals guess was supplied from a previous computation.

   -------------------------------------------------------
    Irrep   Nso     Nmo     Nalpha   Nbeta   Ndocc  Nsocc
   -------------------------------------------------------
     A         30      30      17      17      17       0
   -------------------------------------------------------
    Total      30      30      17      17      17       0
   -------------------------------------------------------

  ==> Iterations <==

                           Total Energy        Delta E     RMS |[F,P]|

   @DF-RHF iter   0:  -155.45826794759569   -1.55458e+02   1.42801e-03 
   @DF-RHF iter   1:  -155.46089515575579   -2.62721e-03   3.29374e-04 DIIS/ADIIS
   @DF-RHF iter   2:  -155.46099696627581   -1.01811e-04   1.01001e-04 DIIS/ADIIS
   @DF-RHF iter   3:  -155.46100758950288   -1.06232e-05   5.04484e-06 DIIS
   @DF-RHF iter   4:  -155.46100760520230   -1.56994e-08   6.18328e-07 DIIS
   @DF-RHF iter   5:  -155.46100760558028   -3.77980e-10   9.89296e-08 DIIS
   @DF-RHF iter   6:  -155.46100760558892   -8.64020e-12   1.90488e-08 DIIS
[...]
      12        1.775982031434    -0.746578736780    -0.992142826123
      13        1.086322335587     1.696706372507     0.596770206182
      14       -0.635687562654     0.852667099619    -1.854582573437


  -Core Hamiltonian Gradient:
     Atom            X                  Y                   Z
    ------   -----------------  -----------------  -----------------
       1        2.929496470915    -0.879933099272   -10.669701351225
       2        7.485526182237    -2.188282663344     1.927222321175
       3        0.347610833758     5.049780954756    -3.027293340180
       4        4.527107432530    -2.545318482278    -2.750944965275
       5       -4.124643155992    -2.725458115370    -3.138261387106
       6       -2.735233206640     7.355503326536     1.717830056318
       7        1.153141453738    -5.902035206381     1.961872244040
       8        5.552395261247     2.370665091838     2.076643949035
       9       -7.413466984207    -3.997590302733     7.229006730751
      10        1.463815005227     5.261349850199     3.307119542462
      11       -3.867028233558     2.949953674065    -4.044324825628
      12       -4.781432188270     2.268671930050     2.555793432844
      13       -2.727640099954    -4.728242066681    -2.119715614010
      14        2.190351228969    -2.289064891385     4.974753206799


  -Overlap Gradient:
     Atom            X                  Y                   Z
    ------   -----------------  -----------------  -----------------
       1       -0.001001324532     0.000475837946    -0.045859063822
       2        0.043904355177    -0.025975280719     0.024775351917
       3        0.000229948637    -0.162409823415     0.062983129355
       4       -0.140859743099     0.081339068716     0.062809502998
       5        0.140796474851     0.081037303164     0.062836414893
       6       -0.018897364726     0.053177103423    -0.005586696327
       7       -0.007275260678     0.163858613053    -0.056474867956
       8       -0.145621304462    -0.075971836084    -0.056335049250
       9       -0.024736304493    -0.028472426965     0.026109765723
      10       -0.050255254450    -0.137096582296    -0.093967326105
      11        0.099359117123    -0.063692660946     0.127133770555
      12        0.137839663373    -0.084624216055    -0.065126906715
      13        0.059173774486     0.136484101976     0.090607179511
      14       -0.092656777207     0.061870798200    -0.133905204780


  -Coulomb Gradient:
     Atom            X                  Y                   Z
    ------   -----------------  -----------------  -----------------
       1       -1.542794178331     0.459357430716     4.905807353320
       2       -3.287928248956     0.774600720110    -0.616964282950
       3       -0.167176453982    -3.452261078980     1.854677750191
       4       -3.021174934928     1.711281022884     1.701614972264
       5        2.889000902753     1.833328872491     1.913864025460
       6        1.182072206886    -3.065285323118    -0.998926849013
       7       -0.605463393147     3.977969351867    -1.344364326226
       8       -3.645286925971    -1.643117377168    -1.379443721699
       9        3.506160056906     1.676330814337    -3.399253491442
      10       -1.037986855893    -3.451201944467    -2.214182673692
      11        2.546325769744    -1.866759684037     2.833650427009
      12        3.126517630730    -1.596692506523    -1.620782143321
      13        1.693767843701     3.151664151207     1.602641601273
      14       -1.636033419511     1.490785550682    -3.238338641175


  -Exchange Gradient:
     Atom            X                  Y                   Z
    ------   -----------------  -----------------  -----------------
       1        0.002253678278    -0.001215630776     0.080211676412
       2       -0.079049312974     0.047257293527    -0.043410549034
       3       -0.000159163717     0.305399941755    -0.118673338087
       4        0.264750076538    -0.152860105823    -0.117761973441
       5       -0.264585844566    -0.152615464563    -0.118369151138
       6        0.035071140373    -0.095095375563     0.009664702240
       7        0.014435094931    -0.307617371101     0.105926791460
       8        0.273092913016     0.142656502020     0.106126893305
       9        0.042825303061     0.050251138585    -0.045621144096
      10        0.094654197901     0.257367348816     0.176057276489
      11       -0.186799485438     0.120124753755    -0.238187529276
      12       -0.258898015466     0.159225793320     0.122252447654
      13       -0.111617034465    -0.256606302983    -0.170303398753
      14        0.174026452528    -0.116272520968     0.252087296266


  -Total Gradient:
     Atom            X                  Y                   Z
    ------   -----------------  -----------------  -----------------
       1       -0.000011085073    -0.000009492108    -0.000002255614
       2       -0.000010436430    -0.000003380378     0.000031698469
       3       -0.000003140350     0.000010463273    -0.000016552801
       4       -0.000004082426     0.000003216705     0.000009861565
       5        0.000002996316     0.000004421148     0.000007558689
       6        0.000017804229     0.000011396319    -0.000026045684
       7        0.000011878360    -0.000009048753     0.000000254454
       8       -0.000006021104    -0.000000870580     0.000002004592
       9       -0.000005611928    -0.000008671097    -0.000010555645
      10        0.000002103336    -0.000003389764    -0.000005010798
      11       -0.000010268210     0.000010799051     0.000000980559
      12        0.000009121801     0.000002264011    -0.000005995661
      13        0.000006819355     0.000006256026    -0.000000025796
      14       -0.000000077875    -0.000013963853     0.000014083673


*** tstop() called on Barrys-MacBook-Pro.local at Mon May 13 15:26:39 2024
Module time:
	user time   =       0.46 seconds =       0.01 minutes
	system time =       0.00 seconds =       0.00 minutes
	total time  =          0 seconds =       0.00 minutes
Total time:
	user time   =    1052.38 seconds =      17.54 minutes
	system time =      17.28 seconds =       0.29 minutes
	total time  =       2531 seconds =      42.18 minutes

    			-----------------------------------------

    			 OPTKING 3.0: for geometry optimizations 

    			     By R.A. King, Bethel University     

    			        with contributions from          

    			    A.V. Copan, J. Cayton, A. Heide      

    			-----------------------------------------

    
	                            ===> Fragment 1 <== 

	 Z (Atomic Numbers)          Masses                          Geom                  
	       6.000000            12.000000          1.59177758 -0.22046971 -3.16898933   
	       6.000000            12.000000          1.59177758 -0.22046971 -0.25565478   
	       1.000000             1.007825          1.59177758  1.69859122 -3.89651205   
	       1.000000             1.007825          3.25588503 -1.18129296 -3.89063391   
	       1.000000             1.007825         -0.07046605 -1.18067933 -3.89502366   
	       6.000000            12.000000         -0.75788954  1.12754714  0.89552390   
	       1.000000             1.007825          1.66697496 -2.16521972  0.40658140   
	       1.000000             1.007825          3.30732154  0.69708256  0.40843906   
	       6.000000            12.000000         -2.37077784 -0.62690250  2.57123738   
	       1.000000             1.007825         -0.14791893  2.73961716  2.01587207   
	       1.000000             1.007825         -1.93847223  1.86989343 -0.61490997   
	       1.000000             1.007825         -3.98783488  0.38510071  3.32898525   
	       1.000000             1.007825         -3.06336288 -2.22820212  1.49033604   
	       1.000000             1.007825         -1.26744361 -1.34579083  4.14538391   

	 - Coordinate -           - BOHR/RAD -       - ANG/DEG -
	 R(1,2)           =         2.913335           1.541670
	 R(1,3)           =         2.052336           1.086050
	 R(1,4)           =         2.052610           1.086194
	 R(1,5)           =         2.052360           1.086062
	 R(2,6)           =         2.943348           1.557553
	 R(2,7)           =         2.055788           1.087876
	 R(2,8)           =         2.055727           1.087844
	 R(6,9)           =         2.913334           1.541670
	 R(6,10)          =         2.055727           1.087844
	 R(6,11)          =         2.055788           1.087876
	 R(9,12)          =         2.052610           1.086194
	 R(9,13)          =         2.052360           1.086062
	 R(9,14)          =         2.052336           1.086050
	 B(1,2,6)         =         1.972636         113.023708
	 B(1,2,7)         =         1.898778         108.791941
	 B(1,2,8)         =         1.899742         108.847218
	 B(2,1,3)         =         1.933160         110.761893
	 B(2,1,4)         =         1.930048         110.583631
	 B(2,1,5)         =         1.932380         110.717210
	 B(2,6,9)         =         1.972636         113.023708
	 B(2,6,10)        =         1.912858         109.598663
	 B(2,6,11)        =         1.913953         109.661413
	 B(3,1,4)         =         1.889223         108.244524
	 B(3,1,5)         =         1.888171         108.184221
	 B(4,1,5)         =         1.889408         108.255131
	 B(6,2,7)         =         1.913953         109.661413
	 B(6,2,8)         =         1.912858         109.598663
	 B(6,9,12)        =         1.930048         110.583632
	 B(6,9,13)        =         1.932380         110.717211
	 B(6,9,14)        =         1.933160         110.761894
	 B(7,2,8)         =         1.862561         106.716886
	 B(9,6,10)        =         1.899742         108.847218
	 B(9,6,11)        =         1.898778         108.791941
	 B(10,6,11)       =         1.862561         106.716885
	 B(12,9,13)       =         1.889408         108.255130
	 B(12,9,14)       =         1.889223         108.244523
	 B(13,9,14)       =         1.888171         108.184221
	[D(1,2,6,9)[119.90,120.10]=         2.092628         119.898760
	 D(1,2,6,10)      =        -2.068334        -118.506804
	 D(1,2,6,11)      =        -0.029145          -1.669886
	 D(2,6,9,12)      =         3.144353         180.158172
	 D(2,6,9,13)      =        -1.044691         -59.856384
	 D(2,6,9,14)      =         1.049935          60.156871
	 D(3,1,2,6)       =         1.049935          60.156871
	 D(3,1,2,7)       =         3.180240         182.214345
	 D(3,1,2,8)       =        -1.079662         -61.860068
	 D(4,1,2,6)       =         3.144353         180.158172
	 D(4,1,2,7)       =        -1.008527         -57.784355
	 D(4,1,2,8)       =         1.014756          58.141233
	 D(5,1,2,6)       =        -1.044691         -59.856384
	 D(5,1,2,7)       =         1.085614          62.201090
	 D(5,1,2,8)       =         3.108897         178.126677
	 D(7,2,6,9)       =        -0.029145          -1.669886
	 D(7,2,6,10)      =         2.093078         119.924550
	 D(7,2,6,11)      =        -2.150918        -123.238532
	 D(8,2,6,9)       =        -2.068334        -118.506805
	 D(8,2,6,10)      =         0.053889           3.087632
	 D(8,2,6,11)      =         2.093078         119.924549
	 D(10,6,9,12)     =         1.014756          58.141232
	 D(10,6,9,13)     =         3.108897         178.126677
	 D(10,6,9,14)     =        -1.079662         -61.860068
	 D(11,6,9,12)     =        -1.008527         -57.784355
	 D(11,6,9,13)     =         1.085614          62.201089
	 D(11,6,9,14)     =         3.180240         182.214345


	        --- Internal Coordinate Step in ANG or DEG, aJ/ANG or AJ/DEG ---
	-------------------------------------------------------------------------------
	           Coordinate      Previous         Force          Change          New 
	           ----------      --------        ------          ------        ------
	               R(1,2)       1.54167       -0.00001       -0.00000       1.54167
	               R(1,3)       1.08605       -0.00013       -0.00002       1.08603
	               R(1,4)       1.08619        0.00007        0.00001       1.08621
	               R(1,5)       1.08606        0.00006        0.00001       1.08607
	               R(2,6)       1.55755        0.00022        0.00004       1.55759
	               R(2,7)       1.08788       -0.00007       -0.00001       1.08786
	               R(2,8)       1.08784        0.00004        0.00001       1.08785
	               R(6,9)       1.54167       -0.00001       -0.00000       1.54167
	              R(6,10)       1.08784        0.00004        0.00001       1.08785
	              R(6,11)       1.08788       -0.00007       -0.00001       1.08786
	              R(9,12)       1.08619        0.00007        0.00001       1.08621
	              R(9,13)       1.08606        0.00006        0.00001       1.08607
	              R(9,14)       1.08605       -0.00013       -0.00002       1.08603
	             B(1,2,6)     113.02371        0.00000        0.00619     113.02990
	             B(1,2,7)     108.79194       -0.00000        0.00031     108.79225
	             B(1,2,8)     108.84722       -0.00000       -0.00173     108.84548
	             B(2,1,3)     110.76189       -0.00000       -0.00748     110.75441
	             B(2,1,4)     110.58363        0.00000        0.00318     110.58681
	             B(2,1,5)     110.71721        0.00000        0.00493     110.72214
	             B(2,6,9)     113.02371        0.00000        0.00619     113.02990
	            B(2,6,10)     109.59866       -0.00000        0.00205     109.60072
	            B(2,6,11)     109.66141       -0.00000       -0.00793     109.65348
	             B(3,1,4)     108.24452        0.00000       -0.00047     108.24405
	             B(3,1,5)     108.18422        0.00000        0.00167     108.18589
	             B(4,1,5)     108.25513       -0.00000       -0.00185     108.25328
	             B(6,2,7)     109.66141       -0.00000       -0.00793     109.65348
	             B(6,2,8)     109.59866       -0.00000        0.00205     109.60072
	            B(6,9,12)     110.58363        0.00000        0.00318     110.58681
	            B(6,9,13)     110.71721        0.00000        0.00493     110.72214
	            B(6,9,14)     110.76189       -0.00000       -0.00748     110.75441
	             B(7,2,8)     106.71689        0.00000        0.00086     106.71774
	            B(9,6,10)     108.84722       -0.00000       -0.00173     108.84548
	            B(9,6,11)     108.79194       -0.00000        0.00031     108.79225
	           B(10,6,11)     106.71689        0.00000        0.00086     106.71774
	           B(12,9,13)     108.25513       -0.00000       -0.00185     108.25328
	           B(12,9,14)     108.24452        0.00000       -0.00047     108.24405
	           B(13,9,14)     108.18422        0.00000        0.00167     108.18589
	[D(1,2,6,9)[119.90,120.10]     119.89876        0.00000        0.00070     119.89946
	          D(1,2,6,10)    -118.50680        0.00000        0.00416    -118.50264
	          D(1,2,6,11)      -1.66989       -0.00000        0.00179      -1.66809
	          D(2,6,9,12)     180.15817        0.00000        0.00643     180.16460
	          D(2,6,9,13)     -59.85638        0.00000        0.00940     -59.84698
	          D(2,6,9,14)      60.15687        0.00000        0.00983      60.16670
	           D(3,1,2,6)      60.15687        0.00000        0.00983      60.16670
	           D(3,1,2,7)     182.21434       -0.00000        0.00406     182.21841
	           D(3,1,2,8)     -61.86007       -0.00000        0.00431     -61.85576
	           D(4,1,2,6)     180.15817        0.00000        0.00643     180.16461
	           D(4,1,2,7)     -57.78435       -0.00000        0.00067     -57.78368
	           D(4,1,2,8)      58.14123       -0.00000        0.00092      58.14215
	           D(5,1,2,6)     -59.85638        0.00000        0.00940     -59.84698
	           D(5,1,2,7)      62.20109       -0.00000        0.00364      62.20473
	           D(5,1,2,8)     178.12668       -0.00000        0.00389     178.13056
	           D(7,2,6,9)      -1.66989       -0.00000        0.00179      -1.66809
	          D(7,2,6,10)     119.92455        0.00000        0.00525     119.92980
	          D(7,2,6,11)    -123.23853       -0.00000        0.00288    -123.23565
	           D(8,2,6,9)    -118.50680        0.00000        0.00416    -118.50264
	          D(8,2,6,10)       3.08763        0.00000        0.00762       3.09525
	          D(8,2,6,11)     119.92455        0.00000        0.00525     119.92980
	         D(10,6,9,12)      58.14123       -0.00000        0.00092      58.14215
	         D(10,6,9,13)     178.12668       -0.00000        0.00389     178.13056
	         D(10,6,9,14)     -61.86007       -0.00000        0.00431     -61.85576
	         D(11,6,9,12)     -57.78436       -0.00000        0.00067     -57.78368
	         D(11,6,9,13)      62.20109       -0.00000        0.00364      62.20473
	         D(11,6,9,14)     182.21434       -0.00000        0.00406     182.21841
	-------------------------------------------------------------------------------

	                                 ==> Convergence Check <==                                  
    
	Measures of convergence in internal coordinates in au.
    
	Criteria marked as inactive (o), active & met (*), and active & unmet ( ).

	----------------------------------------------------------------------------------------------
	   Step    Total Energy     Delta E     Max Force     RMS Force      Max Disp      RMS Disp   
	----------------------------------------------------------------------------------------------
	  Convergence Criteria     1.00e-06 *    3.00e-04 *             o    1.20e-03 *             o
	----------------------------------------------------------------------------------------------
	    12    -155.46123724   -1.19e-06      2.65e-05 *    9.35e-06 o    1.72e-04 *    7.57e-05 o  ~
	----------------------------------------------------------------------------------------------

Next Geometry in Ang 
	Fragment 1 (Ang)

	    C   0.8423928684  -0.1166588628  -1.6770298919
	    C   0.8423268740  -0.1166596625  -0.1353607392
	    H   0.8425475216   0.8988928413  -2.0618767729
	    H   1.7229688845  -0.6251668688  -2.0589307348
	    H  -0.0372586914  -0.6246556640  -2.0613602651
	    C  -0.4010911393   0.5966221469   0.4739351089
	    H   0.8820370156  -1.1457646858   0.2150818216
	    H   1.7501856283   0.3688420522   0.2160736826
	    C  -1.2546120133  -0.3317402778   1.3607208849
	    H  -0.0783474948   1.4497313767   1.0667814356
	    H  -1.0257946416   0.9893896176  -0.3253916589
	    H  -2.1103744828   0.2037591251   1.7616619689
	    H  -1.6210780608  -1.1792313730   0.7888651932
	    H  -0.6706950945  -0.7119571319   2.1937446452


    Final optimized geometry and variables:
    Molecular point group: c1
    Full point group: C1

    Geometry (in Angstrom), charge = 0, multiplicity = 1:

    C       
    C             1    1.541670
    H             1    1.086050      2  110.761893
    H             1    1.086194      2  110.583631      3  120.001300
    H             1    1.086062      2  110.717210      3 -120.013255
    C             2    1.557553      1  113.023708      3   60.156871
    H             2    1.087876      1  108.791941      6  122.057474
    H             2    1.087844      1  108.847218      6 -122.016939
    C             6    1.541670      2  113.023708      1    dihedral
    H             6    1.087844      2  109.598663      9  121.594437
    H             6    1.087876      2  109.661413      9 -121.568646
    H             9    1.086194      6  110.583632     10   58.141232
    H             9    1.086062      6  110.717211     12  119.985444
    H             9    1.086050      6  110.761894     12 -120.001300

    dihedral  =  119.8987595785


  Memory set to   3.725 GiB by Python driver.
