
    -----------------------------------------------------------------------
          Psi4: An Open-Source Ab Initio Electronic Structure Package
                               Psi4 1.9.1 release

                         Git: Rev {} zzzzzzz 


    D. G. A. Smith, L. A. Burns, A. C. Simmonett, R. M. Parrish,
    M. C. Schieber, R. Galvelis, P. Kraus, H. Kruse, R. Di Remigio,
    A. Alenaizan, A. M. James, S. Lehtola, J. P. Misiewicz, M. Scheurer,
    R. A. Shaw, J. B. Schriber, Y. Xie, Z. L. Glick, D. A. Sirianni,
    J. S. O'Brien, J. M. Waldrop, A. Kumar, E. G. Hohenstein,
    B. P. Pritchard, B. R. Brooks, H. F. Schaefer III, A. Yu. Sokolov,
    K. Patkowski, A. E. DePrince III, U. Bozkaya, R. A. King,
    F. A. Evangelista, J. M. Turney, T. D. Crawford, C. D. Sherrill,
    J. Chem. Phys. 152(18) 184108 (2020). https://doi.org/10.1063/5.0006002

                            Additional Code Authors
    E. T. Seidl, C. L. Janssen, E. F. Valeev, M. L. Leininger,
    J. F. Gonthier, R. M. Richard, H. R. McAlexander, M. Saitow, X. Wang,
    P. Verma, M. H. Lechner, A. Jiang, S. Behnle, A. G. Heide,
    M. F. Herbst, and D. L. Poole

             Previous Authors, Complete List of Code Contributors,
                       and Citations for Specific Modules
    https://github.com/psi4/psi4/blob/master/codemeta.json
    https://github.com/psi4/psi4/graphs/contributors
    http://psicode.org/psi4manual/master/introduction.html#citing-psifour

    -----------------------------------------------------------------------


    Psi4 started on: Thursday, 09 May 2024 02:21PM

    Process ID: 45084
    Host:       Barrys-MacBook-Pro.local
    PSIDATADIR: /Users/blink/psi4conda/share/psi4
    Memory:     953.7 MiB
    Threads:    4
    
Scratch directory: /tmp/
gradient() will perform analytic gradient computation.
   => Libint2 <=

    Primary   basis highest AM E, G, H:  5, 4, 3
    Auxiliary basis highest AM E, G, H:  6, 5, 4
    Onebody   basis highest AM E, G, H:  6, 5, 4
    Solid Harmonics ordering:            Gaussian

*** tstart() called on Barrys-MacBook-Pro.local
*** at Fri May 10 11:16:03 2024

   => Loading Basis Set <=

    Name: STO-3G
    Role: ORBITAL
    Keyword: BASIS
    atoms 1-2, 6, 9       entry C          line    61 file /Users/blink/psi4conda/share/psi4/basis/sto-3g.gbs 
    atoms 3-5, 7-8, 10-14 entry H          line    19 file /Users/blink/psi4conda/share/psi4/basis/sto-3g.gbs 


         ---------------------------------------------------------
                                   SCF
               by Justin Turney, Rob Parrish, Andy Simmonett
                          and Daniel G. A. Smith
                              RHF Reference
                        4 Threads,    953 MiB Core
         ---------------------------------------------------------

  ==> Geometry <==

    Molecular point group: c1
    Full point group: C1

    Geometry (in Angstrom), charge = 0, multiplicity = 1:

       Center              X                  Y                   Z               Mass       
    ------------   -----------------  -----------------  -----------------  -----------------
         C            0.946155017955    -0.224100314136    -1.389847699492    12.000000000000
         C            0.946155017955    -0.224100314136     0.151770473478    12.000000000000
         H            0.946155017955     0.791602574148    -1.774305941236     1.007825032230
         H            1.831310841251    -0.728739106538    -1.765564718073     1.007825032230
         H            0.074825656035    -0.736831670778    -1.783910453965     1.007825032230
         C           -0.235007505448     0.554368019789     0.778403044697    12.000000000000
         H            0.930241779781    -1.251364865008     0.511784692722     1.007825032230
         H            1.875476301007     0.222235377015     0.501402098506     1.007825032230
         C           -1.613041445473    -0.085611816457     0.517567217032    12.000000000000
         H           -0.075034131427     0.613916790130     1.853558024144     1.007825032230
         H           -0.234195258667     1.574619926226     0.398638118175     1.007825032230
         H           -2.389290947020     0.469606362768     1.035731234636     1.007825032230
         H           -1.852162205042    -0.088593849380    -0.540830722019     1.007825032230
         H           -1.634336210101    -1.111203249258     0.874175208986     1.007825032230

  Running in c1 symmetry.

  Rotational constants: A =      0.44348  B =      0.15542  C =      0.13331 [cm^-1]
  Rotational constants: A =  13295.09492  B =   4659.38129  C =   3996.57570 [MHz]
  Nuclear repulsion =  131.975142146064826

  Charge       = 0
  Multiplicity = 1
  Electrons    = 34
  Nalpha       = 17
  Nbeta        = 17

  ==> Algorithm <==

  SCF Algorithm Type is DIRECT.
  DIIS enabled.
  MOM disabled.
  Fractional occupation disabled.
  Guess Type is READ.
  Energy threshold   = 1.00e-08
  Density threshold  = 1.00e-08
  Integral threshold = 1.00e-08

  ==> Primary Basis <==

  -AO BASIS SET INFORMATION:
    Name                   = STO-3G
    Blend                  = STO-3G
    Total number of shells = 22
    Number of primitives   = 66
    Number of AO           = 30
    Number of SO           = 30
    Maximum AM             = 1
    Spherical Harmonics    = TRUE

  -Contraction Scheme:
    Atom   Type   All Primitives // Shells:
   ------ ------ --------------------------
       1     C     6s 3p // 2s 1p 
       2     C     6s 3p // 2s 1p 
       3     H     3s // 1s 
       4     H     3s // 1s 
       5     H     3s // 1s 
       6     C     6s 3p // 2s 1p 
       7     H     3s // 1s 
       8     H     3s // 1s 
       9     C     6s 3p // 2s 1p 
      10     H     3s // 1s 
      11     H     3s // 1s 
      12     H     3s // 1s 
      13     H     3s // 1s 
      14     H     3s // 1s 

   => Loading Basis Set <=

    Name: (STO-3G AUX)
    Role: JKFIT
    Keyword: DF_BASIS_SCF
    atoms 1-2, 6, 9       entry C          line   198 file /Users/blink/psi4conda/share/psi4/basis/def2-universal-jkfit.gbs 
    atoms 3-5, 7-8, 10-14 entry H          line    18 file /Users/blink/psi4conda/share/psi4/basis/def2-universal-jkfit.gbs 

   => Loading Basis Set <=

    Name: STO-3G
    Role: ORBITAL
    Keyword: BASIS
    atoms 1-2, 6, 9       entry C          line    61 file /Users/blink/psi4conda/share/psi4/basis/sto-3g.gbs 
    atoms 3-5, 7-8, 10-14 entry H          line    19 file /Users/blink/psi4conda/share/psi4/basis/sto-3g.gbs 

  Reading orbitals from file /tmp/butane_eclipsed_1.default.45084.180.npy, no projection.

  Starting with a DF guess...

  ==> Integral Setup <==

  DFHelper Memory: AOs need 0.005 GiB; user supplied 0.698 GiB. 
  Using in-core AOs.

  ==> MemDFJK: Density-Fitted J/K Matrices <==

    J tasked:                   Yes
    K tasked:                   Yes
    wK tasked:                   No
    OpenMP threads:               4
    Memory [MiB]:               715
    Algorithm:                 Core
    Schwarz Cutoff:           1E-08
    Mask sparsity (%):       0.6667
    Fitting Condition:        1E-10

   => Auxiliary Basis Set <=

  -AO BASIS SET INFORMATION:
    Name                   = (STO-3G AUX)
    Blend                  = DEF2-UNIVERSAL-JKFIT
    Total number of shells = 160
    Number of primitives   = 212
    Number of AO           = 556
    Number of SO           = 480
    Maximum AM             = 4
    Spherical Harmonics    = TRUE

  -Contraction Scheme:
    Atom   Type   All Primitives // Shells:
   ------ ------ --------------------------
       1     C     14s 10p 6d 2f 1g // 10s 8p 5d 1f 1g 
       2     C     14s 10p 6d 2f 1g // 10s 8p 5d 1f 1g 
       3     H     4s 2p 2d // 2s 2p 2d 
       4     H     4s 2p 2d // 2s 2p 2d 
       5     H     4s 2p 2d // 2s 2p 2d 
       6     C     14s 10p 6d 2f 1g // 10s 8p 5d 1f 1g 
       7     H     4s 2p 2d // 2s 2p 2d 
       8     H     4s 2p 2d // 2s 2p 2d 
       9     C     14s 10p 6d 2f 1g // 10s 8p 5d 1f 1g 
      10     H     4s 2p 2d // 2s 2p 2d 
      11     H     4s 2p 2d // 2s 2p 2d 
      12     H     4s 2p 2d // 2s 2p 2d 
      13     H     4s 2p 2d // 2s 2p 2d 
      14     H     4s 2p 2d // 2s 2p 2d 

  Minimum eigenvalue in the overlap matrix is 2.0024311252E-01.
  Reciprocal condition number of the overlap matrix is 7.7223190733E-02.
    Using symmetric orthogonalization.

  ==> Pre-Iterations <==

  SCF Guess: Orbitals guess was supplied from a previous computation.

   -------------------------------------------------------
    Irrep   Nso     Nmo     Nalpha   Nbeta   Ndocc  Nsocc
   -------------------------------------------------------
     A         30      30      17      17      17       0
   -------------------------------------------------------
    Total      30      30      17      17      17       0
   -------------------------------------------------------

  ==> Iterations <==

                           Total Energy        Delta E     RMS |[F,P]|

   @DF-RHF iter   0:  -155.09694605212684   -1.55097e+02   1.95541e-02 
   @DF-RHF iter   1:  -155.44500391913792   -3.48058e-01   4.95975e-03 ADIIS/DIIS
   @DF-RHF iter   2:  -155.46422288209578   -1.92190e-02   1.31782e-03 ADIIS/DIIS
   @DF-RHF iter   3:  -155.46570762604389   -1.48474e-03   3.58060e-04 ADIIS/DIIS
   @DF-RHF iter   4:  -155.46583221627145   -1.24590e-04   1.91421e-05 DIIS
   @DF-RHF iter   5:  -155.46583255017393   -3.33902e-07   5.54838e-06 DIIS
   @DF-RHF iter   6:  -155.46583258123036   -3.10564e-08   1.16324e-06 DIIS
   @DF-RHF iter   7:  -155.46583258271957   -1.48921e-09   1.72635e-07 DIIS
   @DF-RHF iter   8:  -155.46583258275177   -3.22018e-11   3.09414e-08 DIIS
   @DF-RHF iter   9:  -155.46583258275291   -1.13687e-12   6.01074e-09 DIIS

  DF guess converged.

  ==> DirectJK: Integral-Direct J/K Matrices <==

    J tasked:                  Yes
    K tasked:                  Yes
    wK tasked:                  No
    Integrals threads:           4
    Screening Type:           CSAM
    Screening Cutoff:        1E-08
    Incremental Fock:           No

   @RHF iter  10:  -155.46531620731861   -1.55465e+02   4.38544e-06 DIIS
   @RHF iter  11:  -155.46531621571890   -8.40029e-09   7.53211e-07 DIIS
   @RHF iter  12:  -155.46531621600352   -2.84615e-10   1.22210e-07 DIIS
   @RHF iter  13:  -155.46531621601551   -1.19940e-11   2.07010e-08 DIIS
   @RHF iter  14:  -155.46531621601559   -8.52651e-14   6.52475e-10 DIIS
  Energy and wave function converged.


  ==> Post-Iterations <==

    Orbital Energies [Eh]
    ---------------------

    Doubly Occupied:                                                      

       1A    -11.038754     2A    -11.038439     3A    -11.031159  
       4A    -11.031154     5A     -1.027289     6A     -0.938548  
       7A     -0.839753     8A     -0.747344     9A     -0.594214  
      10A     -0.588697    11A     -0.547341    12A     -0.507399  
      13A     -0.496549    14A     -0.474881    15A     -0.431632  
      16A     -0.423027    17A     -0.417838  

    Virtual:                                                              

      18A      0.610047    19A      0.619419    20A      0.639756  
      21A      0.684874    22A      0.685407    23A      0.715231  
      24A      0.737193    25A      0.754722    26A      0.789818  
      27A      0.789908    28A      0.797841    29A      0.817814  
      30A      0.820484  

    Final Occupation by Irrep:
              A 
    DOCC [    17 ]
    NA   [    17 ]
    NB   [    17 ]

  @RHF Final Energy:  -155.46531621601559

   => Energetics <=

    Nuclear Repulsion Energy =            131.9751421460648260
    One-Electron Energy =                -470.5328815733888632
    Two-Electron Energy =                 183.0924232113084145
    Total Energy =                       -155.4653162160155944

Computation Completed


Properties will be evaluated at   0.000000,   0.000000,   0.000000 [a0]

Properties computed using the SCF density matrix


 Multipole Moments:

 ------------------------------------------------------------------------------------
     Multipole            Electronic (a.u.)      Nuclear  (a.u.)        Total (a.u.)
 ------------------------------------------------------------------------------------

 L = 1.  Multiply by 2.5417464519 to convert [e a0] to [Debye]
 Dipole X            :          0.5029548           -0.4940550            0.0088998
 Dipole Y            :          0.2335803           -0.2294473            0.0041330
 Dipole Z            :          0.6578595           -0.6462188            0.0116407
 Magnitude           :                                                    0.0152248

 ------------------------------------------------------------------------------------

*** tstop() called on Barrys-MacBook-Pro.local at Fri May 10 11:16:04 2024
Module time:
	user time   =       2.70 seconds =       0.04 minutes
	system time =       0.05 seconds =       0.00 minutes
	total time  =          1 seconds =       0.02 minutes
Total time:
	user time   =     297.62 seconds =       4.96 minutes
	system time =       6.78 seconds =       0.11 minutes
	total time  =      75280 seconds =    1254.67 minutes

*** tstart() called on Barrys-MacBook-Pro.local
*** at Fri May 10 11:16:04 2024


         ------------------------------------------------------------
                                   SCF GRAD                          
                          Rob Parrish, Justin Turney,                
                       Andy Simmonett, and Alex Sokolov              
         ------------------------------------------------------------

  ==> Geometry <==

    Molecular point group: c1
    Full point group: C1

    Geometry (in Angstrom), charge = 0, multiplicity = 1:

       Center              X                  Y                   Z               Mass       
    ------------   -----------------  -----------------  -----------------  -----------------
         C            0.946155017955    -0.224100314136    -1.389847699492    12.000000000000
         C            0.946155017955    -0.224100314136     0.151770473478    12.000000000000
         H            0.946155017955     0.791602574148    -1.774305941236     1.007825032230
         H            1.831310841251    -0.728739106538    -1.765564718073     1.007825032230
         H            0.074825656035    -0.736831670778    -1.783910453965     1.007825032230
         C           -0.235007505448     0.554368019789     0.778403044697    12.000000000000
         H            0.930241779781    -1.251364865008     0.511784692722     1.007825032230
         H            1.875476301007     0.222235377015     0.501402098506     1.007825032230
         C           -1.613041445473    -0.085611816457     0.517567217032    12.000000000000
         H           -0.075034131427     0.613916790130     1.853558024144     1.007825032230
         H           -0.234195258667     1.574619926226     0.398638118175     1.007825032230
         H           -2.389290947020     0.469606362768     1.035731234636     1.007825032230
         H           -1.852162205042    -0.088593849380    -0.540830722019     1.007825032230
         H           -1.634336210101    -1.111203249258     0.874175208986     1.007825032230

  Nuclear repulsion =  131.975142146064854

  ==> Basis Set <==

  -AO BASIS SET INFORMATION:
    Name                   = STO-3G
    Blend                  = STO-3G
    Total number of shells = 22
    Number of primitives   = 66
    Number of AO           = 30
    Number of SO           = 30
    Maximum AM             = 1
    Spherical Harmonics    = TRUE

  -Contraction Scheme:
    Atom   Type   All Primitives // Shells:
   ------ ------ --------------------------
       1     C     6s 3p // 2s 1p 
       2     C     6s 3p // 2s 1p 
       3     H     3s // 1s 
       4     H     3s // 1s 
       5     H     3s // 1s 
       6     C     6s 3p // 2s 1p 
       7     H     3s // 1s 
       8     H     3s // 1s 
       9     C     6s 3p // 2s 1p 
      10     H     3s // 1s 
      11     H     3s // 1s 
      12     H     3s // 1s 
      13     H     3s // 1s 
      14     H     3s // 1s 

  ==> DirectJKGrad: Integral-Direct SCF Gradients <==

    Gradient:                    1
    J tasked:                  Yes
    K tasked:                  Yes
    wK tasked:                  No
    Integrals threads:           4
    Schwarz Cutoff:          1E-08


  -Nuclear Gradient:
     Atom            X                  Y                   Z
    ------   -----------------  -----------------  -----------------
       1       -1.800271678441     0.557473031237     5.672112804694
       2       -4.391285873629     1.850927402938    -1.973534685049
       3       -0.237733502000    -1.739412833472     1.240879053156
       4       -1.671142548397     0.916197600970     1.084009912625
       5        1.250715765324     1.012102141097     1.326399917108
       6        0.213594241443    -3.791112089417    -3.490843434628
       7       -0.425842254039     2.094113378683    -0.822835090138
       8       -2.069310316279    -0.682464437173    -0.805997424720
       9        5.817121435118     1.308012502279    -0.418113998897
      10       -0.281942453681    -0.409492482121    -2.269418425352
      11        0.063936284539    -2.262188478410     0.349463923171
      12        1.788845218157    -0.861537227071    -0.930052808587
      13        1.110905709512     0.084676742527     1.762581483956
      14        0.632409972372     1.922704747932    -0.724651227340


  -Core Hamiltonian Gradient:
     Atom            X                  Y                   Z
    ------   -----------------  -----------------  -----------------
       1        3.789524547895    -1.154316358677   -10.519664106583
       2        8.025763756227    -3.135369293145     3.315530289273
       3        0.462526219400     5.094062649361    -3.069992212981
       4        4.627011863855    -2.566961801061    -2.707692285526
       5       -3.959573046842    -2.866247758055    -3.278120450296
       6       -0.572315854983     6.596861750558     6.433490704392
       7        0.812493337179    -5.913944159465     2.265695161499
       8        5.621335580453     2.078897809059     2.183514798328
       9      -10.969509913713    -2.180170246559     1.128328628351
      10        0.831943316423     0.918097894121     6.257309566358
      11       -0.108951084511     6.240683358074    -1.345460017100
      12       -4.699977909966     2.533082622463     2.612247462061
      13       -2.586384601729    -0.173811364715    -5.283943261376
      14       -1.273886209689    -5.470865101960     2.008755723599


  -Overlap Gradient:
     Atom            X                  Y                   Z
    ------   -----------------  -----------------  -----------------
       1        0.001475772713     0.000018955010    -0.046504848921
       2        0.040005004975    -0.024166233791     0.028465412956
       3        0.000019206357    -0.162321253307     0.062911476044
       4       -0.141432422509     0.080569331500     0.061645647797
       5        0.139123754727     0.082272549453     0.065076523862
       6        0.005109421854     0.045118143194     0.030544264848
       7        0.001353747614     0.163370366014    -0.058079945851
       8       -0.147948915458    -0.069705480267    -0.056268538764
       9       -0.042031094900    -0.018853692894    -0.006541535533
      10       -0.025581384299    -0.010884460567    -0.170707315533
      11       -0.000494211255    -0.162971302582     0.059203920357
      12        0.125452663669    -0.087990851316    -0.082546890249
      13        0.040236945774     0.001025825580     0.169526044303
      14        0.004711510738     0.164518103973    -0.056724215317


  -Coulomb Gradient:
     Atom            X                  Y                   Z
    ------   -----------------  -----------------  -----------------
       1       -1.989307630703     0.597023233036     4.812574224261
       2       -3.603941624348     1.266065941252    -1.320364901206
       3       -0.224790183995    -3.497707138568     1.884690096014
       4       -3.080641177365     1.721970290425     1.677979842605
       5        2.831885250396     1.926725343702     2.008977698916
       6        0.362557200469    -2.771410971002    -2.919319808357
       7       -0.385596385404     3.962780920021    -1.493568456383
       8       -3.681969673666    -1.457719808206    -1.426820168107
       9        5.121197389156     0.857466691782    -0.716106927323
      10       -0.572383699323    -0.518062014333    -4.137830936629
      11        0.044723458662    -4.121090531049     1.047702785434
      12        3.021770380068    -1.749315813135    -1.754979222286
      13        1.510745797363     0.090069938531     3.671153113873
      14        0.645750898688     3.693203917545    -1.334087340813


  -Exchange Gradient:
     Atom            X                  Y                   Z
    ------   -----------------  -----------------  -----------------
       1       -0.001450104369    -0.000186304535     0.081423935314
       2       -0.070570567274     0.042492798925    -0.050037436701
       3       -0.000013003220     0.305380426302    -0.118514014462
       4        0.266185918338    -0.151767686286    -0.115936189646
       5       -0.262085633383    -0.154845381146    -0.122333735610
       6       -0.008898816080    -0.079399834681    -0.053908810699
       7       -0.002396817477    -0.306336060153     0.108815264700
       8        0.277870216023     0.131011556615     0.105578662271
       9        0.073183276728     0.033500866358     0.012403383873
      10        0.047984348225     0.020319888598     0.320635791402
      11        0.000800887853     0.305595126037    -0.110902138369
      12       -0.236076014081     0.165751650661     0.155319382378
      13       -0.075522545235    -0.001945972899    -0.319255496693
      14       -0.009011146048    -0.309571073796     0.106711402240


  -Total Gradient:
     Atom            X                  Y                   Z
    ------   -----------------  -----------------  -----------------
       1       -0.000029092905     0.000012556072    -0.000057991235
       2       -0.000029304049    -0.000049383821     0.000058679273
       3        0.000008736542     0.000001850316    -0.000025602229
       4       -0.000018366078     0.000007735549     0.000006927857
       5        0.000066090223     0.000006895050    -0.000000046019
       6        0.000046192704     0.000056998652    -0.000037084443
       7        0.000011627872    -0.000015554899     0.000026933828
       8       -0.000023108926     0.000019640027     0.000007329007
       9       -0.000038907611    -0.000043879035    -0.000030449528
      10        0.000020127346    -0.000021174302    -0.000011319754
      11        0.000015335288     0.000028172071     0.000008473493
      12        0.000014337847    -0.000009618398    -0.000012076683
      13       -0.000018694316     0.000015169023     0.000061884064
      14       -0.000024973938    -0.000009406306     0.000004342370


*** tstop() called on Barrys-MacBook-Pro.local at Fri May 10 11:16:05 2024
Module time:
	user time   =       0.64 seconds =       0.01 minutes
	system time =       0.00 seconds =       0.00 minutes
	total time  =          1 seconds =       0.02 minutes
Total time:
	user time   =     298.26 seconds =       4.97 minutes
	system time =       6.78 seconds =       0.11 minutes
	total time  =      75281 seconds =    1254.68 minutes

    			-----------------------------------------

    			 OPTKING 3.0: for geometry optimizations 

    			     By R.A. King, Bethel University     

    			        with contributions from          

    			    A.V. Copan, J. Cayton, A. Heide      

    			-----------------------------------------

    
	                            ===> Fragment 1 <== 

	 Z (Atomic Numbers)          Masses                          Geom                  
	       6.000000            12.000000          1.78797386 -0.42348822 -2.62643151   
	       6.000000            12.000000          1.78797386 -0.42348822  0.28680463   
	       1.000000             1.007825          1.78797386  1.49591207 -3.35295229   
	       1.000000             1.007825          3.46067594 -1.37711733 -3.33643377   
	       1.000000             1.007825          0.14140000 -1.39241006 -3.37110219   
	       6.000000            12.000000         -0.44409982  1.04760373  1.47096857   
	       1.000000             1.007825          1.75790219 -2.36473688  0.96713290   
	       1.000000             1.007825          3.54413656  0.41996400  0.94751264   
	       6.000000            12.000000         -3.04820656 -0.16178289  0.97806029   
	       1.000000             1.007825         -0.14179396  1.16013460  3.50271702   
	       1.000000             1.007825         -0.44256490  2.97560041  0.75331687   
	       1.000000             1.007825         -4.51510552  0.88742741  1.95724837   
	       1.000000             1.007825         -3.50007931 -0.16741811 -1.02202194   
	       1.000000             1.007825         -3.08844783 -2.09986981  1.65195173   

	 - Coordinate -           - BOHR/RAD -       - ANG/DEG -
	 R(1,2)           =         2.913236           1.541618
	 R(1,3)           =         2.052299           1.086030
	 R(1,4)           =         2.052180           1.085967
	 R(1,5)           =         2.050500           1.085078
	 R(2,6)           =         2.923783           1.547199
	 R(2,7)           =         2.057230           1.088639
	 R(2,8)           =         2.057196           1.088621
	 R(6,9)           =         2.913236           1.541618
	 R(6,10)          =         2.057196           1.088621
	 R(6,11)          =         2.057231           1.088640
	 R(9,12)          =         2.052180           1.085967
	 R(9,13)          =         2.050500           1.085078
	 R(9,14)          =         2.052299           1.086030
	 B(1,2,6)         =         1.987787         113.891807
	 B(1,2,7)         =         1.907843         109.311332
	 B(1,2,8)         =         1.897760         108.733651
	 B(2,1,3)         =         1.932645         110.732380
	 B(2,1,4)         =         1.924074         110.241301
	 B(2,1,5)         =         1.942459         111.294725
	 B(2,6,9)         =         1.987788         113.891847
	 B(2,6,10)        =         1.891610         108.381264
	 B(2,6,11)        =         1.906766         109.249617
	 B(3,1,4)         =         1.888223         108.187222
	 B(3,1,5)         =         1.889535         108.262362
	 B(4,1,5)         =         1.885249         108.016830
	 B(6,2,7)         =         1.906765         109.249576
	 B(6,2,8)         =         1.891611         108.381310
	 B(6,9,12)        =         1.924075         110.241364
	 B(6,9,13)        =         1.942459         111.294676
	 B(6,9,14)        =         1.932644         110.732333
	 B(7,2,8)         =         1.868320         107.046852
	 B(9,6,10)        =         1.897760         108.733622
	 B(9,6,11)        =         1.907842         109.311300
	 B(10,6,11)       =         1.868320         107.046876
	 B(12,9,13)       =         1.885249         108.016829
	 B(12,9,14)       =         1.888223         108.187219
	 B(13,9,14)       =         1.889535         108.262400
	[D(1,2,6,9)[110.00,130.00]=         1.160788          66.508257
	 D(1,2,6,10)      =        -3.007850        -172.337135
	 D(1,2,6,11)      =        -0.977835         -56.025820
	 D(2,6,9,12)      =         3.077024         176.300508
	 D(2,6,9,13)      =        -1.114603         -63.862073
	 D(2,6,9,14)      =         0.988074          56.612476
	 D(3,1,2,6)       =         0.988072          56.612337
	 D(3,1,2,7)       =         3.126103         179.112509
	 D(3,1,2,8)       =        -1.123048         -64.345894
	 D(4,1,2,6)       =         3.077022         176.300361
	 D(4,1,2,7)       =        -1.068132         -61.199467
	 D(4,1,2,8)       =         0.965902          55.342131
	 D(5,1,2,6)       =        -1.114606         -63.862229
	 D(5,1,2,7)       =         1.023425          58.637943
	 D(5,1,2,8)       =         3.057460         175.179541
	 D(7,2,6,9)       =        -0.977835         -56.025802
	 D(7,2,6,10)      =         1.136712          65.128806
	 D(7,2,6,11)      =        -3.116458        -178.559879
	 D(8,2,6,9)       =        -3.007850        -172.337091
	 D(8,2,6,10)      =        -0.893303         -51.182483
	 D(8,2,6,11)      =         1.136713          65.128832
	 D(10,6,9,12)     =         0.965906          55.342330
	 D(10,6,9,13)     =         3.057463         175.179749
	 D(10,6,9,14)     =        -1.123044         -64.345701
	 D(11,6,9,12)     =        -1.068129         -61.199263
	 D(11,6,9,13)     =         1.023429          58.638156
	 D(11,6,9,14)     =         3.126106         179.112706


	        --- Internal Coordinate Step in ANG or DEG, aJ/ANG or AJ/DEG ---
	-------------------------------------------------------------------------------
	           Coordinate      Previous         Force          Change          New 
	           ----------      --------        ------          ------        ------
	               R(1,2)       1.54162       -0.00063       -0.00014       1.54148
	               R(1,3)       1.08603       -0.00009       -0.00002       1.08601
	               R(1,4)       1.08597        0.00017        0.00003       1.08600
	               R(1,5)       1.08508        0.00046        0.00008       1.08516
	               R(2,6)       1.54720        0.00007        0.00002       1.54722
	               R(2,7)       1.08864       -0.00019       -0.00004       1.08860
	               R(2,8)       1.08862        0.00008        0.00001       1.08864
	               R(6,9)       1.54162       -0.00063       -0.00014       1.54148
	              R(6,10)       1.08862        0.00008        0.00001       1.08864
	              R(6,11)       1.08864       -0.00019       -0.00004       1.08860
	              R(9,12)       1.08597        0.00017        0.00003       1.08600
	              R(9,13)       1.08508        0.00046        0.00008       1.08516
	              R(9,14)       1.08603       -0.00009       -0.00002       1.08601
	             B(1,2,6)     113.89181       -0.00001       -0.65758     113.23422
	             B(1,2,7)     109.31133        0.00000        9.69164     119.00297
	             B(1,2,8)     108.73365        0.00000       -9.93070      98.80295
	             B(2,1,3)     110.73238       -0.00000       -0.01566     110.71672
	             B(2,1,4)     110.24130        0.00000        0.01090     110.25220
	             B(2,1,5)     111.29472       -0.00000       -0.01124     111.28349
	             B(2,6,9)     113.89185       -0.00001       -0.65766     113.23419
	            B(2,6,10)     108.38126        0.00000        0.17437     108.55564
	            B(2,6,11)     109.24962        0.00000       -0.47612     108.77350
	             B(3,1,4)     108.18722        0.00000        0.00735     108.19457
	             B(3,1,5)     108.26236        0.00000       -0.00434     108.25803
	             B(4,1,5)     108.01683        0.00000        0.01393     108.03076
	             B(6,2,7)     109.24958        0.00000       -0.47607     108.77351
	             B(6,2,8)     108.38131        0.00000        0.17430     108.55561
	            B(6,9,12)     110.24136        0.00000        0.01079     110.25216
	            B(6,9,13)     111.29468       -0.00000       -0.01117     111.28351
	            B(6,9,14)     110.73233       -0.00000       -0.01559     110.71674
	             B(7,2,8)     107.04685       -0.00000        0.43366     107.48051
	            B(9,6,10)     108.73362        0.00000       -9.93066      98.80297
	            B(9,6,11)     109.31130        0.00000        9.69169     119.00299
	           B(10,6,11)     107.04688       -0.00000        0.43362     107.48050
	           B(12,9,13)     108.01683        0.00000        0.01394     108.03077
	           B(12,9,14)     108.18722        0.00000        0.00735     108.19457
	           B(13,9,14)     108.26240        0.00000       -0.00438     108.25802
	[D(1,2,6,9)[110.00,130.00]      66.50826        0.00000       24.49571      91.00397
	          D(1,2,6,10)    -172.33713       -0.00000       11.99097    -160.34617
	          D(1,2,6,11)     -56.02582        0.00000       12.34362     -43.68220
	          D(2,6,9,12)     176.30051        0.00000       -4.41511     171.88540
	          D(2,6,9,13)     -63.86207        0.00000       -4.39774     -68.25981
	          D(2,6,9,14)      56.61248        0.00000       -4.42126      52.19122
	           D(3,1,2,6)      56.61234        0.00000       -4.42115      52.19118
	           D(3,1,2,7)     179.11251       -0.00000        2.75493     181.86743
	           D(3,1,2,8)     -64.34589       -0.00000        1.89669     -62.44921
	           D(4,1,2,6)     176.30036        0.00000       -4.41499     171.88537
	           D(4,1,2,7)     -61.19947       -0.00000        2.76109     -58.43837
	           D(4,1,2,8)      55.34213       -0.00000        1.90285      57.24498
	           D(5,1,2,6)     -63.86223        0.00000       -4.39760     -68.25983
	           D(5,1,2,7)      58.63794        0.00000        2.77848      61.41642
	           D(5,1,2,8)     175.17954        0.00000        1.92024     177.09978
	           D(7,2,6,9)     -56.02580        0.00000       12.34358     -43.68222
	          D(7,2,6,10)      65.12881        0.00000       -0.16116      64.96764
	          D(7,2,6,11)    -178.55988        0.00000        0.19149    -178.36839
	           D(8,2,6,9)    -172.33709       -0.00000       11.99090    -160.34619
	          D(8,2,6,10)     -51.18248       -0.00000       -0.51384     -51.69633
	          D(8,2,6,11)      65.12883        0.00000       -0.16119      64.96764
	         D(10,6,9,12)      55.34233       -0.00000        1.90265      57.24498
	         D(10,6,9,13)     175.17975        0.00000        1.92001     177.09976
	         D(10,6,9,14)     -64.34570       -0.00000        1.89650     -62.44920
	         D(11,6,9,12)     -61.19926       -0.00000        2.76088     -58.43839
	         D(11,6,9,13)      58.63816        0.00000        2.77824      61.41640
	         D(11,6,9,14)     179.11271       -0.00000        2.75473     181.86743
	-------------------------------------------------------------------------------

	                                 ==> Convergence Check <==                                  
    
	Measures of convergence in internal coordinates in au.
    
	Criteria marked as inactive (o), active & met (*), and active & unmet ( ).

	----------------------------------------------------------------------------------------------
	   Step    Total Energy     Delta E     Max Force     RMS Force      Max Disp      RMS Disp   
	----------------------------------------------------------------------------------------------
	  Convergence Criteria     1.00e-06 *    3.00e-04 *             o    1.20e-03 *             o
	----------------------------------------------------------------------------------------------
	     1    -155.46531622   -1.55e+02      7.68e-05 *    2.80e-05 o    4.28e-01      9.16e-02 o  ~
	----------------------------------------------------------------------------------------------

Next Geometry in Ang 
	Fragment 1 (Ang)

	    C   1.0645323349  -0.1557194172  -1.4256742004
	    C   0.8508095990  -0.3146978990   0.0926123231
	    H   1.1845950876   0.8909681500  -1.6892181231
	    H   1.9580461128  -0.6885265672  -1.7373509121
	    H   0.2240965359  -0.5530220915  -1.9854909202
	    C  -0.2864570444   0.5767924162   0.6455558349
	    H   0.7457121729  -1.3150359478   0.5089500487
	    H   1.8029512731   0.0847142937   0.4376090043
	    C  -1.6608404837  -0.1212159015   0.6457086263
	    H  -0.1527447581   0.6816684282   1.7208458961
	    H  -0.1985160720   1.5691625757   0.2067773277
	    H  -2.3914305704   0.4872557975   1.1704875860
	    H  -2.0212738678  -0.2816161115  -0.3651998938
	    H  -1.6022283910  -1.0849238614   1.1429579801


    Structure for next step:
    Molecular point group: c1
    Full point group: C1

    Geometry (in Angstrom), charge = 0, multiplicity = 1:

    C       
    C             1    1.541475
    H             1    1.086014      2  110.716723
    H             1    1.085998      2  110.252197      3  119.694191
    H             1    1.085162      2  111.283487      3 -120.451014
    C             2    1.547216      1  113.234224      3   52.191184
    H             2    1.088604      1  119.002974      6  129.676251
    H             2    1.088635      1   98.802950      6 -114.640392
    C             6    1.541475      2  113.234189      1    dihedral
    H             6    1.088635      2  108.555637      9  108.649862
    H             6    1.088604      2  108.773499      9 -134.686168
    H             9    1.085998      6  110.252158     10   57.244978
    H             9    1.085162      6  111.283507     12  119.854785
    H             9    1.086014      6  110.716743     12 -119.694181

    dihedral  =   91.0039686239


Scratch directory: /tmp/
gradient() will perform analytic gradient computation.
   => Libint2 <=

    Primary   basis highest AM E, G, H:  5, 4, 3
    Auxiliary basis highest AM E, G, H:  6, 5, 4
    Onebody   basis highest AM E, G, H:  6, 5, 4
    Solid Harmonics ordering:            Gaussian

*** tstart() called on Barrys-MacBook-Pro.local
*** at Fri May 10 11:16:05 2024

   => Loading Basis Set <=

    Name: STO-3G
    Role: ORBITAL
    Keyword: BASIS
    atoms 1-2, 6, 9       entry C          line    61 file /Users/blink/psi4conda/share/psi4/basis/sto-3g.gbs 
    atoms 3-5, 7-8, 10-14 entry H          line    19 file /Users/blink/psi4conda/share/psi4/basis/sto-3g.gbs 


         ---------------------------------------------------------
                                   SCF
               by Justin Turney, Rob Parrish, Andy Simmonett
                          and Daniel G. A. Smith
                              RHF Reference
                        4 Threads,    953 MiB Core
         ---------------------------------------------------------

  ==> Geometry <==

    Molecular point group: c1
    Full point group: C1

    Geometry (in Angstrom), charge = 0, multiplicity = 1:

       Center              X                  Y                   Z               Mass       
    ------------   -----------------  -----------------  -----------------  -----------------
         C            0.894331992022    -0.235850904359    -1.519870004274    12.000000000000
         C            0.894331992022    -0.235850904359     0.021605111612    12.000000000000
         H            0.894331992022     0.779941857266    -1.904044954820     1.007825032230
         H            1.779397034272    -0.740564166963    -1.895791666988     1.007825032230
         H            0.022657687894    -0.748302980274    -1.913765021323     1.007825032230
         C           -0.228926094795     0.635714231356     0.631967636699    12.000000000000
         H            0.925357764531    -1.187432414594     0.549420243518     1.007825032230
         H            1.848147809261     0.261749354185     0.188206272780     1.007825032230
         C           -1.530859299200    -0.146658392613     0.894662290918    12.000000000000
         H            0.035279228311     0.870061021032     1.661726734037     1.007825032230
         H           -0.279196584691     1.575730817968     0.085249774002     1.007825032230
         H           -2.233170087663     0.467877758462     1.450087817353     1.007825032230
         H           -2.006220674643    -0.443681963470    -0.034522862283     1.007825032230
         H           -1.330436593573    -1.042010746058     1.475696051965     1.007825032230

  Running in c1 symmetry.

  Rotational constants: A =      0.50249  B =      0.13976  C =      0.12949 [cm^-1]
  Rotational constants: A =  15064.26335  B =   4189.91478  C =   3882.12654 [MHz]
  Nuclear repulsion =  131.348816973691271

  Charge       = 0
  Multiplicity = 1
  Electrons    = 34
  Nalpha       = 17
  Nbeta        = 17

  ==> Algorithm <==

  SCF Algorithm Type is DIRECT.
  DIIS enabled.
  MOM disabled.
  Fractional occupation disabled.
  Guess Type is READ.
  Energy threshold   = 1.00e-08
  Density threshold  = 1.00e-08
  Integral threshold = 1.00e-08

  ==> Primary Basis <==

  -AO BASIS SET INFORMATION:
    Name                   = STO-3G
    Blend                  = STO-3G
    Total number of shells = 22
    Number of primitives   = 66
    Number of AO           = 30
    Number of SO           = 30
    Maximum AM             = 1
    Spherical Harmonics    = TRUE

  -Contraction Scheme:
    Atom   Type   All Primitives // Shells:
   ------ ------ --------------------------
       1     C     6s 3p // 2s 1p 
       2     C     6s 3p // 2s 1p 
       3     H     3s // 1s 
       4     H     3s // 1s 
       5     H     3s // 1s 
       6     C     6s 3p // 2s 1p 
       7     H     3s // 1s 
       8     H     3s // 1s 
       9     C     6s 3p // 2s 1p 
      10     H     3s // 1s 
      11     H     3s // 1s 
      12     H     3s // 1s 
      13     H     3s // 1s 
      14     H     3s // 1s 

   => Loading Basis Set <=

    Name: (STO-3G AUX)
    Role: JKFIT
    Keyword: DF_BASIS_SCF
    atoms 1-2, 6, 9       entry C          line   198 file /Users/blink/psi4conda/share/psi4/basis/def2-universal-jkfit.gbs 
    atoms 3-5, 7-8, 10-14 entry H          line    18 file /Users/blink/psi4conda/share/psi4/basis/def2-universal-jkfit.gbs 

   => Loading Basis Set <=

    Name: STO-3G
    Role: ORBITAL
    Keyword: BASIS
    atoms 1-2, 6, 9       entry C          line    61 file /Users/blink/psi4conda/share/psi4/basis/sto-3g.gbs 
    atoms 3-5, 7-8, 10-14 entry H          line    19 file /Users/blink/psi4conda/share/psi4/basis/sto-3g.gbs 

  Reading orbitals from file /tmp/butane_eclipsed_1.default.45084.180.npy, no projection.

  Starting with a DF guess...

  ==> Integral Setup <==

  DFHelper Memory: AOs need 0.005 GiB; user supplied 0.698 GiB. 
  Using in-core AOs.

  ==> MemDFJK: Density-Fitted J/K Matrices <==

    J tasked:                   Yes
    K tasked:                   Yes
    wK tasked:                   No
    OpenMP threads:               4
    Memory [MiB]:               715
    Algorithm:                 Core
    Schwarz Cutoff:           1E-08
    Mask sparsity (%):       0.6667
    Fitting Condition:        1E-10

   => Auxiliary Basis Set <=

  -AO BASIS SET INFORMATION:
    Name                   = (STO-3G AUX)
    Blend                  = DEF2-UNIVERSAL-JKFIT
    Total number of shells = 160
    Number of primitives   = 212
    Number of AO           = 556
    Number of SO           = 480
    Maximum AM             = 4
    Spherical Harmonics    = TRUE

  -Contraction Scheme:
    Atom   Type   All Primitives // Shells:
   ------ ------ --------------------------
       1     C     14s 10p 6d 2f 1g // 10s 8p 5d 1f 1g 
       2     C     14s 10p 6d 2f 1g // 10s 8p 5d 1f 1g 
       3     H     4s 2p 2d // 2s 2p 2d 
       4     H     4s 2p 2d // 2s 2p 2d 
       5     H     4s 2p 2d // 2s 2p 2d 
       6     C     14s 10p 6d 2f 1g // 10s 8p 5d 1f 1g 
       7     H     4s 2p 2d // 2s 2p 2d 
       8     H     4s 2p 2d // 2s 2p 2d 
       9     C     14s 10p 6d 2f 1g // 10s 8p 5d 1f 1g 
      10     H     4s 2p 2d // 2s 2p 2d 
      11     H     4s 2p 2d // 2s 2p 2d 
      12     H     4s 2p 2d // 2s 2p 2d 
      13     H     4s 2p 2d // 2s 2p 2d 
      14     H     4s 2p 2d // 2s 2p 2d 

  Minimum eigenvalue in the overlap matrix is 2.0081640495E-01.
  Reciprocal condition number of the overlap matrix is 7.7362572538E-02.
    Using symmetric orthogonalization.

  ==> Pre-Iterations <==

  SCF Guess: Orbitals guess was supplied from a previous computation.

   -------------------------------------------------------
    Irrep   Nso     Nmo     Nalpha   Nbeta   Ndocc  Nsocc
   -------------------------------------------------------
     A         30      30      17      17      17       0
   -------------------------------------------------------
    Total      30      30      17      17      17       0
   -------------------------------------------------------

  ==> Iterations <==

                           Total Energy        Delta E     RMS |[F,P]|

   @DF-RHF iter   0:  -155.31694585902193   -1.55317e+02   1.16390e-02 
   @DF-RHF iter   1:  -155.44483497403149   -1.27889e-01   2.66677e-03 ADIIS/DIIS
   @DF-RHF iter   2:  -155.45070971285691   -5.87474e-03   7.35516e-04 ADIIS/DIIS
   @DF-RHF iter   3:  -155.45120806535729   -4.98353e-04   1.79339e-04 ADIIS/DIIS
   @DF-RHF iter   4:  -155.45123808597126   -3.00206e-05   7.96449e-06 DIIS
   @DF-RHF iter   5:  -155.45123814559730   -5.96260e-08   2.08285e-06 DIIS
   @DF-RHF iter   6:  -155.45123814990686   -4.30956e-09   3.69728e-07 DIIS
   @DF-RHF iter   7:  -155.45123815004706   -1.40204e-10   6.11483e-08 DIIS
   @DF-RHF iter   8:  -155.45123815005095   -3.89377e-12   1.41387e-08 DIIS
   @DF-RHF iter   9:  -155.45123815005110   -1.42109e-13   2.77287e-09 DIIS

  DF guess converged.

  ==> DirectJK: Integral-Direct J/K Matrices <==

    J tasked:                  Yes
    K tasked:                  Yes
    wK tasked:                  No
    Integrals threads:           4
    Screening Type:           CSAM
    Screening Cutoff:        1E-08
    Incremental Fock:           No

   @RHF iter  10:  -155.45072378885428   -1.55451e+02   4.38219e-06 DIIS
   @RHF iter  11:  -155.45072379727071   -8.41644e-09   7.50797e-07 DIIS
   @RHF iter  12:  -155.45072379755590   -2.85183e-10   1.23951e-07 DIIS
   @RHF iter  13:  -155.45072379756829   -1.23919e-11   2.14750e-08 DIIS
   @RHF iter  14:  -155.45072379756883   -5.40012e-13   1.14683e-09 DIIS
  Energy and wave function converged.


  ==> Post-Iterations <==

    Orbital Energies [Eh]
    ---------------------

    Doubly Occupied:                                                      

       1A    -11.036441     2A    -11.036127     3A    -11.032007  
       4A    -11.032002     5A     -1.027525     6A     -0.942091  
       7A     -0.834954     8A     -0.748959     9A     -0.597604  
      10A     -0.588159    11A     -0.545491    12A     -0.513891  
      13A     -0.485740    14A     -0.477213    15A     -0.449921  
      16A     -0.415847    17A     -0.399491  

    Virtual:                                                              

      18A      0.590221    19A      0.606338    20A      0.654053  
      21A      0.679285    22A      0.692924    23A      0.709655  
      24A      0.737460    25A      0.758382    26A      0.779053  
      27A      0.790654    28A      0.797207    29A      0.809395  
      30A      0.849753  

    Final Occupation by Irrep:
              A 
    DOCC [    17 ]
    NA   [    17 ]
    NB   [    17 ]

  @RHF Final Energy:  -155.45072379756883

   => Energetics <=

    Nuclear Repulsion Energy =            131.3488169736912710
    One-Electron Energy =                -469.2721560677091475
    Two-Electron Energy =                 182.4726152964490495
    Total Energy =                       -155.4507237975688270

Computation Completed


Properties will be evaluated at   0.000000,   0.000000,   0.000000 [a0]

Properties computed using the SCF density matrix


 Multipole Moments:

 ------------------------------------------------------------------------------------
     Multipole            Electronic (a.u.)      Nuclear  (a.u.)        Total (a.u.)
 ------------------------------------------------------------------------------------

 L = 1.  Multiply by 2.5417464519 to convert [e a0] to [Debye]
 Dipole X            :          0.3491285           -0.3223512            0.0267773
 Dipole Y            :          0.2098021           -0.1937107            0.0160914
 Dipole Z            :          0.3429198           -0.3166187            0.0263011
 Magnitude           :                                                    0.0408375

 ------------------------------------------------------------------------------------

*** tstop() called on Barrys-MacBook-Pro.local at Fri May 10 11:16:06 2024
Module time:
	user time   =       2.85 seconds =       0.05 minutes
	system time =       0.03 seconds =       0.00 minutes
	total time  =          1 seconds =       0.02 minutes
Total time:
	user time   =     302.83 seconds =       5.05 minutes
	system time =       6.83 seconds =       0.11 minutes
	total time  =      75282 seconds =    1254.70 minutes

*** tstart() called on Barrys-MacBook-Pro.local
*** at Fri May 10 11:16:06 2024


         ------------------------------------------------------------
                                   SCF GRAD                          
                          Rob Parrish, Justin Turney,                
                       Andy Simmonett, and Alex Sokolov              
         ------------------------------------------------------------

  ==> Geometry <==

    Molecular point group: c1
    Full point group: C1

    Geometry (in Angstrom), charge = 0, multiplicity = 1:

       Center              X                  Y                   Z               Mass       
    ------------   -----------------  -----------------  -----------------  -----------------
         C            0.894331992022    -0.235850904359    -1.519870004274    12.000000000000
         C            0.894331992022    -0.235850904359     0.021605111612    12.000000000000
         H            0.894331992022     0.779941857266    -1.904044954820     1.007825032230
         H            1.779397034272    -0.740564166963    -1.895791666988     1.007825032230
         H            0.022657687894    -0.748302980274    -1.913765021323     1.007825032230
         C           -0.228926094795     0.635714231356     0.631967636699    12.000000000000
         H            0.925357764531    -1.187432414594     0.549420243518     1.007825032230
         H            1.848147809261     0.261749354185     0.188206272780     1.007825032230
         C           -1.530859299200    -0.146658392613     0.894662290918    12.000000000000
         H            0.035279228311     0.870061021032     1.661726734037     1.007825032230
         H           -0.279196584691     1.575730817968     0.085249774002     1.007825032230
         H           -2.233170087663     0.467877758462     1.450087817353     1.007825032230
         H           -2.006220674643    -0.443681963470    -0.034522862283     1.007825032230
         H           -1.330436593573    -1.042010746058     1.475696051965     1.007825032230

  Nuclear repulsion =  131.348816973691299

  ==> Basis Set <==

  -AO BASIS SET INFORMATION:
    Name                   = STO-3G
    Blend                  = STO-3G
    Total number of shells = 22
    Number of primitives   = 66
    Number of AO           = 30
    Number of SO           = 30
    Maximum AM             = 1
    Spherical Harmonics    = TRUE

  -Contraction Scheme:
    Atom   Type   All Primitives // Shells:
   ------ ------ --------------------------
       1     C     6s 3p // 2s 1p 
       2     C     6s 3p // 2s 1p 
       3     H     3s // 1s 
       4     H     3s // 1s 
       5     H     3s // 1s 
       6     C     6s 3p // 2s 1p 
       7     H     3s // 1s 
       8     H     3s // 1s 
       9     C     6s 3p // 2s 1p 
      10     H     3s // 1s 
      11     H     3s // 1s 
      12     H     3s // 1s 
      13     H     3s // 1s 
      14     H     3s // 1s 

  ==> DirectJKGrad: Integral-Direct SCF Gradients <==

    Gradient:                    1
    J tasked:                  Yes
    K tasked:                  Yes
    wK tasked:                  No
    Integrals threads:           4
    Schwarz Cutoff:          1E-08


  -Nuclear Gradient:
     Atom            X                  Y                   Z
    ------   -----------------  -----------------  -----------------
       1       -1.461082506088     0.677930979259     5.729650886524
       2       -4.029023043377     2.270606426432    -1.653388781207
       3       -0.200076712654    -1.720616574149     1.257216621836
       4       -1.646945860821     0.925158275486     1.092332090921
       5        1.317990053226     0.999913104216     1.292274544232
       6        0.341338556304    -4.486651526000    -1.968715635828
       7       -0.519237847291     1.958085914680    -1.020618419768
       8       -2.134015230703    -0.775160191388    -0.520818390585
       9        5.394293994669     1.685659755561    -1.866385832349
      10       -0.541450976791    -0.832611002174    -2.107067898448
      11        0.222547161566    -2.136376435327     0.729204406311
      12        1.631396254099    -0.934503010856    -1.107605110416
      13        1.423492730041     0.647529256686     1.400454227307
      14        0.200773427821     1.721035027574    -1.256532708530


  -Core Hamiltonian Gradient:
     Atom            X                  Y                   Z
    ------   -----------------  -----------------  -----------------
       1        3.392653910135    -0.924976663481   -10.594973252825
       2        6.769334206857    -4.878380168301     2.754860478090
       3        0.389651268328     5.054790722110    -3.150380089686
       4        4.579466968537    -2.572676610364    -2.714422800657
       5       -4.027104217919    -2.817870146002    -3.130108092936
       6       -1.142498040856     8.259725945191     2.771915417324
       7        1.093300775800    -5.430080211133     3.308837946130
       8        5.762559035392     2.357541689581     0.876933834212
       9       -9.901835465278    -2.986601271108     4.201543052141
      10        1.151522479720     1.797347859571     5.914190277117
      11       -0.164448499764     5.988254990893    -2.396506178308
      12       -4.263612697402     2.762484622029     3.024657675171
      13       -3.535576272895    -1.726780031110    -4.298078010748
      14       -0.103413450655    -4.882780727876     3.431529744974


  -Overlap Gradient:
     Atom            X                  Y                   Z
    ------   -----------------  -----------------  -----------------
       1       -0.004470232496    -0.009605697598    -0.046778269261
       2        0.062584424912     0.015832975990     0.023354915067
       3       -0.000212521848    -0.163320735352     0.063919180308
       4       -0.141835819995     0.080134363535     0.061341542303
       5        0.138338502969     0.081628589250     0.063784886639
       6        0.019138663547     0.033276878535     0.056914674871
       7       -0.006943949197     0.151562456009    -0.096471564796
       8       -0.147811748373    -0.077028499241    -0.015439861181
       9       -0.043846427013    -0.019429101087    -0.000678982757
      10       -0.032134764980    -0.031107045129    -0.161306579418
      11       -0.002189298336    -0.157050867985     0.087500810817
      12        0.113089524759    -0.097408926725    -0.089576504002
      13        0.076671435680     0.047577570326     0.147401318952
      14       -0.030377789629     0.144938039474    -0.093965567540


  -Coulomb Gradient:
     Atom            X                  Y                   Z
    ------   -----------------  -----------------  -----------------
       1       -1.929848513015     0.250117335915     4.829881583647
       2       -2.697144190202     2.611670910693    -1.082470696849
       3       -0.189526219094    -3.476321785471     1.948433293938
       4       -3.056988354646     1.718921169347     1.676545661121
       5        2.833197498163     1.890838102727     1.895359122791
       6        0.813173629599    -3.743811522705    -0.768001055595
       7       -0.579493070228     3.603420084432    -2.358265604808
       8       -3.763455866843    -1.651285514973    -0.383179818053
       9        4.478953920542     1.281726141722    -2.326103274317
      10       -0.649633457497    -1.000679725437    -3.951429190941
      11       -0.048586358146    -3.980851241931     1.741357453383
      12        2.732544286911    -1.913890622083    -1.995217638814
      13        2.180945377541     1.122316467684     3.029612074733
      14       -0.124138683085     3.287830200081    -2.256521910236


  -Exchange Gradient:
     Atom            X                  Y                   Z
    ------   -----------------  -----------------  -----------------
       1        0.018825777254     0.031291868733     0.085067372668
       2       -0.125199020518    -0.052269526588    -0.038652588632
       3       -0.000002742618     0.305219660101    -0.122945845969
       4        0.266443770977    -0.151402486537    -0.115615992342
       5       -0.261680322854    -0.154880827536    -0.117085263468
       6       -0.042114531318    -0.048274155881    -0.125685124116
       7        0.013089914592    -0.277106419798     0.182120964353
       8        0.283311887762     0.146800591026     0.022002689877
       9        0.085380361599     0.031328373721     0.017285193927
      10        0.054747224321     0.056349846887     0.310044543978
      11        0.008794710318     0.290257475208    -0.160625666735
      12       -0.213214935751     0.183389426379     0.167898009926
      13       -0.142260381403    -0.087859715057    -0.279671740658
      14        0.053878287638    -0.272844110656     0.175863447190


  -Total Gradient:
     Atom            X                  Y                   Z
    ------   -----------------  -----------------  -----------------
       1        0.016078435790     0.024757822828     0.002848320753
       2       -0.019447622328    -0.032539381773     0.003703326469
       3       -0.000166927886    -0.000248712762    -0.003756839574
       4        0.000140704052     0.000134711467     0.000180501346
       5        0.000741513585    -0.000371177345     0.004225197258
       6       -0.010961722723     0.014265619140    -0.033571723344
       7        0.000715823677     0.005881824189     0.015603321111
       8        0.000588077235     0.000868075005    -0.020501545729
       9        0.012946384520    -0.007316101190     0.025660156645
      10       -0.016949495227    -0.010700066283     0.004431152288
      11        0.016117715638     0.004233920858     0.000930825469
      12        0.000202432617     0.000071488742     0.000156431864
      13        0.003272888964     0.002783548529    -0.000282130414
      14       -0.003278207911    -0.001821571404     0.000373005859


*** tstop() called on Barrys-MacBook-Pro.local at Fri May 10 11:16:06 2024
Module time:
	user time   =       0.47 seconds =       0.01 minutes
	system time =       0.01 seconds =       0.00 minutes
	total time  =          0 seconds =       0.00 minutes
Total time:
	user time   =     303.31 seconds =       5.06 minutes
	system time =       6.84 seconds =       0.11 minutes
	total time  =      75282 seconds =    1254.70 minutes

    			-----------------------------------------

    			 OPTKING 3.0: for geometry optimizations 

    			     By R.A. King, Bethel University     

    			        with contributions from          

    			    A.V. Copan, J. Cayton, A. Heide      

    			-----------------------------------------

    
	                            ===> Fragment 1 <== 

	 Z (Atomic Numbers)          Masses                          Geom                  
	       6.000000            12.000000          1.69004253 -0.44569362 -2.87213805   
	       6.000000            12.000000          1.69004253 -0.44569362  0.04082774   
	       1.000000             1.007825          1.69004253  1.47387650 -3.59812350   
	       1.000000             1.007825          3.36257306 -1.39946345 -3.58252704   
	       1.000000             1.007825          0.04281682 -1.41408769 -3.61649176   
	       6.000000            12.000000         -0.43260762  1.20132579  1.19424575   
	       1.000000             1.007825          1.74867274 -2.24392206  1.03825379   
	       1.000000             1.007825          3.49249320  0.49463459  0.35565831   
	       6.000000            12.000000         -2.89290481 -0.27714420  1.69066670   
	       1.000000             1.007825          0.06666808  1.64417704  3.14020842   
	       1.000000             1.007825         -0.52760508  2.97769969  0.16109873   
	       1.000000             1.007825         -4.22007986  0.88416082  2.74026883   
	       1.000000             1.007825         -3.79120762 -0.83843740 -0.06523875   
	       1.000000             1.007825         -2.51416079 -1.96911493  2.78866138   

	 - Coordinate -           - BOHR/RAD -       - ANG/DEG -
	 R(1,2)           =         2.912966           1.541475
	 R(1,3)           =         2.052268           1.086014
	 R(1,4)           =         2.052240           1.085998
	 R(1,5)           =         2.050659           1.085162
	 R(2,6)           =         2.923814           1.547216
	 R(2,7)           =         2.057164           1.088604
	 R(2,8)           =         2.057222           1.088635
	 R(6,9)           =         2.912966           1.541475
	 R(6,10)          =         2.057222           1.088635
	 R(6,11)          =         2.057163           1.088604
	 R(9,12)          =         2.052240           1.085998
	 R(9,13)          =         2.050659           1.085162
	 R(9,14)          =         2.052268           1.086014
	 B(1,2,6)         =         1.976310         113.234224
	 B(1,2,7)         =         2.076994         119.002974
	 B(1,2,8)         =         1.724437          98.802950
	 B(2,1,3)         =         1.932371         110.716723
	 B(2,1,4)         =         1.924264         110.252197
	 B(2,1,5)         =         1.942263         111.283487
	 B(2,6,9)         =         1.976309         113.234189
	 B(2,6,10)        =         1.894653         108.555637
	 B(2,6,11)        =         1.898456         108.773499
	 B(3,1,4)         =         1.888351         108.194568
	 B(3,1,5)         =         1.889459         108.258027
	 B(4,1,5)         =         1.885493         108.030765
	 B(6,2,7)         =         1.898456         108.773510
	 B(6,2,8)         =         1.894653         108.555605
	 B(6,9,12)        =         1.924263         110.252158
	 B(6,9,13)        =         1.942264         111.283507
	 B(6,9,14)        =         1.932372         110.716743
	 B(7,2,8)         =         1.875889         107.480508
	 B(9,6,10)        =         1.724437          98.802965
	 B(9,6,11)        =         2.076994         119.002990
	 B(10,6,11)       =         1.875889         107.480500
	 B(12,9,13)       =         1.885493         108.030767
	 B(12,9,14)       =         1.888351         108.194571
	 B(13,9,14)       =         1.889459         108.258021
	[D(1,2,6,9)[110.00,130.00]=         1.588319          91.003969
	 D(1,2,6,10)      =        -2.798569        -160.346169
	 D(1,2,6,11)      =        -0.762398         -43.682199
	 D(2,6,9,12)      =         2.999966         171.885402
	 D(2,6,9,13)      =        -1.191358         -68.259813
	 D(2,6,9,14)      =         0.910909          52.191221
	 D(3,1,2,6)       =         0.910908          52.191184
	 D(3,1,2,7)       =         3.174186         181.867435
	 D(3,1,2,8)       =        -1.089944         -62.449208
	 D(4,1,2,6)       =         2.999966         171.885375
	 D(4,1,2,7)       =        -1.019942         -58.438375
	 D(4,1,2,8)       =         0.999113          57.244983
	 D(5,1,2,6)       =        -1.191359         -68.259830
	 D(5,1,2,7)       =         1.071919          61.416421
	 D(5,1,2,8)       =         3.090974         177.099778
	 D(7,2,6,9)       =        -0.762399         -43.682218
	 D(7,2,6,10)      =         1.133899          64.967644
	 D(7,2,6,11)      =        -3.113116        -178.368386
	 D(8,2,6,9)       =        -2.798569        -160.346187
	 D(8,2,6,10)      =        -0.902271         -51.696325
	 D(8,2,6,11)      =         1.133899          64.967645
	 D(10,6,9,12)     =         0.999113          57.244978
	 D(10,6,9,13)     =         3.090974         177.099763
	 D(10,6,9,14)     =        -1.089944         -62.449203
	 D(11,6,9,12)     =        -1.019942         -58.438386
	 D(11,6,9,13)     =         1.071918          61.416399
	 D(11,6,9,14)     =         3.174186         181.867433


	        --- Internal Coordinate Step in ANG or DEG, aJ/ANG or AJ/DEG ---
	-------------------------------------------------------------------------------
	           Coordinate      Previous         Force          Change          New 
	           ----------      --------        ------          ------        ------
	               R(1,2)       1.54148        0.02881        0.00324       1.54471
	               R(1,3)       1.08601       -0.00903       -0.00089       1.08512
	               R(1,4)       1.08600        0.00009        0.00001       1.08601
	               R(1,5)       1.08516        0.01610        0.00159       1.08675
	               R(2,6)       1.54722        0.00852        0.00097       1.54819
	               R(2,7)       1.08860       -0.02014       -0.00200       1.08661
	               R(2,8)       1.08864        0.01833        0.00182       1.09045
	               R(6,9)       1.54148        0.02881        0.00324       1.54471
	              R(6,10)       1.08864        0.01833        0.00182       1.09045
	              R(6,11)       1.08860       -0.02014       -0.00200       1.08661
	              R(9,12)       1.08600        0.00009        0.00001       1.08601
	              R(9,13)       1.08516        0.01610        0.00159       1.08675
	              R(9,14)       1.08601       -0.00903       -0.00089       1.08512
	             B(1,2,6)     113.23422       -0.00006       -0.46734     112.76688
	             B(1,2,7)     119.00297       -0.00070        2.48272     121.48569
	             B(1,2,8)      98.80295        0.00074       -2.64727      96.15568
	             B(2,1,3)     110.71672       -0.00050       -0.92537     109.79135
	             B(2,1,4)     110.25220        0.00002        0.04339     110.29558
	             B(2,1,5)     111.28349        0.00050        0.92645     112.20994
	             B(2,6,9)     113.23419       -0.00006       -0.46733     112.76686
	            B(2,6,10)     108.55564       -0.00070       -1.48965     107.06599
	            B(2,6,11)     108.77350        0.00075        1.09589     109.86939
	             B(3,1,4)     108.19457        0.00015        0.19909     108.39366
	             B(3,1,5)     108.25803       -0.00002       -0.03304     108.22498
	             B(4,1,5)     108.03076       -0.00016       -0.21354     107.81722
	             B(6,2,7)     108.77351        0.00075        1.09590     109.86941
	             B(6,2,8)     108.55561       -0.00070       -1.48964     107.06596
	            B(6,9,12)     110.25216        0.00002        0.04340     110.29556
	            B(6,9,13)     111.28351        0.00050        0.92644     112.20995
	            B(6,9,14)     110.71674       -0.00050       -0.92538     109.79136
	             B(7,2,8)     107.48051       -0.00013        0.11347     107.59398
	            B(9,6,10)      98.80297        0.00074       -2.64727      96.15569
	            B(9,6,11)     119.00299       -0.00070        2.48271     121.48570
	           B(10,6,11)     107.48050       -0.00013        0.11348     107.59398
	           B(12,9,13)     108.03077       -0.00016       -0.21354     107.81722
	           B(12,9,14)     108.19457        0.00015        0.19909     108.39366
	           B(13,9,14)     108.25802       -0.00002       -0.03304     108.22498
	[D(1,2,6,9)[110.00,130.00]      91.00397        0.00000       10.60416     101.60813
	          D(1,2,6,10)    -160.34617        0.00047        6.46054    -153.88563
	          D(1,2,6,11)     -43.68220        0.00034        6.35758     -37.32462
	          D(2,6,9,12)     171.88540       -0.00034       -2.53961     169.34579
	          D(2,6,9,13)     -68.25981       -0.00019       -2.17069     -70.43051
	          D(2,6,9,14)      52.19122       -0.00021       -2.22759      49.96363
	           D(3,1,2,6)      52.19118       -0.00021       -2.22758      49.96360
	           D(3,1,2,7)     181.86743        0.00016        1.66852     183.53596
	           D(3,1,2,8)     -62.44921        0.00020        0.98190     -61.46731
	           D(4,1,2,6)     171.88537       -0.00034       -2.53961     169.34577
	           D(4,1,2,7)     -58.43837        0.00004        1.35650     -57.08187
	           D(4,1,2,8)      57.24498        0.00008        0.66987      57.91486
	           D(5,1,2,6)     -68.25983       -0.00019       -2.17069     -70.43052
	           D(5,1,2,7)      61.41642        0.00018        1.72542      63.14184
	           D(5,1,2,8)     177.09978        0.00022        1.03879     178.13857
	           D(7,2,6,9)     -43.68222        0.00034        6.35758     -37.32464
	          D(7,2,6,10)      64.96764        0.00080        2.21396      67.18161
	          D(7,2,6,11)    -178.36839        0.00067        2.11100    -176.25739
	           D(8,2,6,9)    -160.34619        0.00047        6.46055    -153.88564
	          D(8,2,6,10)     -51.69633        0.00093        2.31693     -49.37940
	          D(8,2,6,11)      64.96764        0.00080        2.21396      67.18161
	         D(10,6,9,12)      57.24498        0.00008        0.66987      57.91485
	         D(10,6,9,13)     177.09976        0.00022        1.03879     178.13855
	         D(10,6,9,14)     -62.44920        0.00020        0.98189     -61.46731
	         D(11,6,9,12)     -58.43839        0.00004        1.35650     -57.08188
	         D(11,6,9,13)      61.41640        0.00018        1.72542      63.14182
	         D(11,6,9,14)     181.86743        0.00016        1.66852     183.53595
	-------------------------------------------------------------------------------

	                                 ==> Convergence Check <==                                  
    
	Measures of convergence in internal coordinates in au.
    
	Criteria marked as inactive (o), active & met (*), and active & unmet ( ).

	----------------------------------------------------------------------------------------------
	   Step    Total Energy     Delta E     Max Force     RMS Force      Max Disp      RMS Disp   
	----------------------------------------------------------------------------------------------
	  Convergence Criteria     1.00e-06 *    3.00e-04 *             o    1.20e-03 *             o
	----------------------------------------------------------------------------------------------
	     2    -155.45072380    1.46e-02      1.23e-02      5.10e-03 o    1.85e-01      4.29e-02 o  ~
	----------------------------------------------------------------------------------------------

Next Geometry in Ang 
	Fragment 1 (Ang)

	    C   0.9439838423  -0.2132981597  -1.5404392627
	    C   0.8458796426  -0.2827314945  -0.0004114487
	    H   0.9871041317   0.8229580623  -1.8595071309
	    H   1.8438268396  -0.7152436480  -1.8835900229
	    H   0.0942781657  -0.6839189869  -2.0278296853
	    C  -0.2649578188   0.6318256190   0.5710024785
	    H   0.8489379893  -1.2332106647   0.5261747514
	    H   1.7988738072   0.2080228226   0.1997081063
	    C  -1.5435348678  -0.1469908372   0.9515503494
	    H   0.0241348087   0.8874800948   1.5908807941
	    H  -0.3117782372   1.5560065946   0.0014321287
	    H  -2.2188076533   0.4899060284   1.5152773871
	    H  -2.0793247940  -0.5089574323   0.0780845886
	    H  -1.2835896904  -1.0011254308   1.5682943896


    Structure for next step:
    Molecular point group: c1
    Full point group: C1

    Geometry (in Angstrom), charge = 0, multiplicity = 1:

    C       
    C             1    1.544711
    H             1    1.085122      2  109.791348
    H             1    1.086011      2  110.295584      3  119.382168
    H             1    1.086753      2  112.209937      3 -120.394123
    C             2    1.548189      1  112.766880      3   49.963600
    H             2    1.086606      1  121.485690      6  133.572360
    H             2    1.090452      1   96.155679      6 -111.430912
    C             6    1.544711      2  112.766857      1    dihedral
    H             6    1.090452      2  107.065986      9  104.506245
    H             6    1.086606      2  109.869393      9 -138.932749
    H             9    1.086011      6  110.295559     10   57.914853
    H             9    1.086753      6  112.209952     12  120.223702
    H             9    1.085122      6  109.791362     12 -119.382161

    dihedral  =  101.6081295770


Scratch directory: /tmp/
gradient() will perform analytic gradient computation.
   => Libint2 <=

    Primary   basis highest AM E, G, H:  5, 4, 3
    Auxiliary basis highest AM E, G, H:  6, 5, 4
    Onebody   basis highest AM E, G, H:  6, 5, 4
    Solid Harmonics ordering:            Gaussian

*** tstart() called on Barrys-MacBook-Pro.local
*** at Fri May 10 11:16:06 2024

   => Loading Basis Set <=

    Name: STO-3G
    Role: ORBITAL
    Keyword: BASIS
    atoms 1-2, 6, 9       entry C          line    61 file /Users/blink/psi4conda/share/psi4/basis/sto-3g.gbs 
    atoms 3-5, 7-8, 10-14 entry H          line    19 file /Users/blink/psi4conda/share/psi4/basis/sto-3g.gbs 


         ---------------------------------------------------------
                                   SCF
               by Justin Turney, Rob Parrish, Andy Simmonett
                          and Daniel G. A. Smith
                              RHF Reference
                        4 Threads,    953 MiB Core
         ---------------------------------------------------------

  ==> Geometry <==

    Molecular point group: c1
    Full point group: C1

    Geometry (in Angstrom), charge = 0, multiplicity = 1:

       Center              X                  Y                   Z               Mass       
    ------------   -----------------  -----------------  -----------------  -----------------
         C            0.859683984792    -0.260023689806    -1.578143016494    12.000000000000
         C            0.859683984792    -0.260023689806    -0.033432334895    12.000000000000
         H            0.859683984792     0.761002601438    -1.945560944728     1.007825032230
         H            1.747246117518    -0.759775370274    -1.954840316502     1.007825032230
         H           -0.008162083027    -0.769066293266    -1.988937313359     1.007825032230
         C           -0.233310859258     0.658291809110     0.565689832136    12.000000000000
         H            0.916833606505    -1.184885520568     0.534086428850     1.007825032230
         H            1.812171149187     0.257838462066     0.083497161564     1.007825032230
         C           -1.467924932963    -0.126715424708     1.061293259141    12.000000000000
         H            0.113255838121     0.966409695375     1.552624697877     1.007825032230
         H           -0.336229672616     1.554051920394    -0.040721374425     1.007825032230
         H           -2.120617183012     0.522374161790     1.637569807942     1.007825032230
         H           -2.049118834211    -0.539018615789     0.240773409344     1.007825032230
         H           -1.150959652734    -0.946204926064     1.698051124207     1.007825032230

  Running in c1 symmetry.

  Rotational constants: A =      0.53317  B =      0.13376  C =      0.12764 [cm^-1]
  Rotational constants: A =  15984.08915  B =   4010.17055  C =   3826.44683 [MHz]
  Nuclear repulsion =  131.041399324912902

  Charge       = 0
  Multiplicity = 1
  Electrons    = 34
  Nalpha       = 17
  Nbeta        = 17

  ==> Algorithm <==

  SCF Algorithm Type is DIRECT.
  DIIS enabled.
  MOM disabled.
  Fractional occupation disabled.
  Guess Type is READ.
  Energy threshold   = 1.00e-08
  Density threshold  = 1.00e-08
  Integral threshold = 1.00e-08

  ==> Primary Basis <==

  -AO BASIS SET INFORMATION:
    Name                   = STO-3G
    Blend                  = STO-3G
    Total number of shells = 22
    Number of primitives   = 66
    Number of AO           = 30
    Number of SO           = 30
    Maximum AM             = 1
    Spherical Harmonics    = TRUE

  -Contraction Scheme:
    Atom   Type   All Primitives // Shells:
   ------ ------ --------------------------
       1     C     6s 3p // 2s 1p 
       2     C     6s 3p // 2s 1p 
       3     H     3s // 1s 
       4     H     3s // 1s 
       5     H     3s // 1s 
       6     C     6s 3p // 2s 1p 
       7     H     3s // 1s 
       8     H     3s // 1s 
       9     C     6s 3p // 2s 1p 
      10     H     3s // 1s 
      11     H     3s // 1s 
      12     H     3s // 1s 
      13     H     3s // 1s 
      14     H     3s // 1s 

   => Loading Basis Set <=

    Name: (STO-3G AUX)
    Role: JKFIT
    Keyword: DF_BASIS_SCF
    atoms 1-2, 6, 9       entry C          line   198 file /Users/blink/psi4conda/share/psi4/basis/def2-universal-jkfit.gbs 
    atoms 3-5, 7-8, 10-14 entry H          line    18 file /Users/blink/psi4conda/share/psi4/basis/def2-universal-jkfit.gbs 

   => Loading Basis Set <=

    Name: STO-3G
    Role: ORBITAL
    Keyword: BASIS
    atoms 1-2, 6, 9       entry C          line    61 file /Users/blink/psi4conda/share/psi4/basis/sto-3g.gbs 
    atoms 3-5, 7-8, 10-14 entry H          line    19 file /Users/blink/psi4conda/share/psi4/basis/sto-3g.gbs 

  Reading orbitals from file /tmp/butane_eclipsed_1.default.45084.180.npy, no projection.

  Starting with a DF guess...

  ==> Integral Setup <==

  DFHelper Memory: AOs need 0.005 GiB; user supplied 0.698 GiB. 
  Using in-core AOs.

  ==> MemDFJK: Density-Fitted J/K Matrices <==

    J tasked:                   Yes
    K tasked:                   Yes
    wK tasked:                   No
    OpenMP threads:               4
    Memory [MiB]:               715
    Algorithm:                 Core
    Schwarz Cutoff:           1E-08
    Mask sparsity (%):       0.6667
    Fitting Condition:        1E-10

   => Auxiliary Basis Set <=

  -AO BASIS SET INFORMATION:
    Name                   = (STO-3G AUX)
    Blend                  = DEF2-UNIVERSAL-JKFIT
    Total number of shells = 160
    Number of primitives   = 212
    Number of AO           = 556
    Number of SO           = 480
    Maximum AM             = 4
    Spherical Harmonics    = TRUE

  -Contraction Scheme:
    Atom   Type   All Primitives // Shells:
   ------ ------ --------------------------
       1     C     14s 10p 6d 2f 1g // 10s 8p 5d 1f 1g 
       2     C     14s 10p 6d 2f 1g // 10s 8p 5d 1f 1g 
       3     H     4s 2p 2d // 2s 2p 2d 
       4     H     4s 2p 2d // 2s 2p 2d 
       5     H     4s 2p 2d // 2s 2p 2d 
       6     C     14s 10p 6d 2f 1g // 10s 8p 5d 1f 1g 
       7     H     4s 2p 2d // 2s 2p 2d 
       8     H     4s 2p 2d // 2s 2p 2d 
       9     C     14s 10p 6d 2f 1g // 10s 8p 5d 1f 1g 
      10     H     4s 2p 2d // 2s 2p 2d 
      11     H     4s 2p 2d // 2s 2p 2d 
      12     H     4s 2p 2d // 2s 2p 2d 
      13     H     4s 2p 2d // 2s 2p 2d 
      14     H     4s 2p 2d // 2s 2p 2d 

  Minimum eigenvalue in the overlap matrix is 2.0138798729E-01.
  Reciprocal condition number of the overlap matrix is 7.7463205285E-02.
    Using symmetric orthogonalization.

  ==> Pre-Iterations <==

  SCF Guess: Orbitals guess was supplied from a previous computation.

   -------------------------------------------------------
    Irrep   Nso     Nmo     Nalpha   Nbeta   Ndocc  Nsocc
   -------------------------------------------------------
     A         30      30      17      17      17       0
   -------------------------------------------------------
    Total      30      30      17      17      17       0
   -------------------------------------------------------

  ==> Iterations <==

[...]
    Total      30      30      17      17      17       0
   -------------------------------------------------------

  ==> Iterations <==

                           Total Energy        Delta E     RMS |[F,P]|

   @DF-RHF iter   0:  -155.42680629968166   -1.55427e+02   2.32377e-03 
   @DF-RHF iter   1:  -155.43585115311225   -9.04485e-03   4.74315e-04 ADIIS/DIIS
   @DF-RHF iter   2:  -155.43605199165637   -2.00839e-04   1.38474e-04 ADIIS/DIIS
   @DF-RHF iter   3:  -155.43607116185956   -1.91702e-05   2.24024e-05 DIIS
   @DF-RHF iter   4:  -155.43607157455648   -4.12697e-07   1.32803e-06 DIIS
   @DF-RHF iter   5:  -155.43607157625047   -1.69399e-09   3.27391e-07 DIIS
   @DF-RHF iter   6:  -155.43607157635540   -1.04933e-10   4.74597e-08 DIIS
   @DF-RHF iter   7:  -155.43607157635756   -2.16005e-12   5.96344e-09 DIIS

  DF guess converged.

  ==> DirectJK: Integral-Direct J/K Matrices <==

    J tasked:                  Yes
    K tasked:                  Yes
    wK tasked:                  No
    Integrals threads:           4
    Screening Type:           CSAM
    Screening Cutoff:        1E-08
    Incremental Fock:           No

   @RHF iter   8:  -155.43556070270142   -1.55436e+02   4.36070e-06 DIIS
   @RHF iter   9:  -155.43556071103023   -8.32881e-09   7.43842e-07 DIIS
   @RHF iter  10:  -155.43556071131206   -2.81830e-10   1.24421e-07 DIIS
   @RHF iter  11:  -155.43556071132471   -1.26477e-11   2.19670e-08 DIIS
   @RHF iter  12:  -155.43556071132511   -3.97904e-13   1.38239e-09 DIIS
  Energy and wave function converged.


  ==> Post-Iterations <==

    Orbital Energies [Eh]
    ---------------------

    Doubly Occupied:                                                      

       1A    -11.034496     2A    -11.034183     3A    -11.032488  
       4A    -11.032487     5A     -1.027168     6A     -0.943041  
       7A     -0.832611     8A     -0.749909     9A     -0.597974  
      10A     -0.585789    11A     -0.546299    12A     -0.516099  
      13A     -0.487472    14A     -0.469349    15A     -0.457474  
      16A     -0.413335    17A     -0.387326  

    Virtual:                                                              

      18A      0.575818    19A      0.608479    20A      0.644079  
      21A      0.679657    22A      0.684358    23A      0.712668  
      24A      0.738583    25A      0.754247    26A      0.765090  
      27A      0.791385    28A      0.794517    29A      0.821777  
      30A      0.865517  

    Final Occupation by Irrep:
              A 
    DOCC [    17 ]
    NA   [    17 ]
    NB   [    17 ]

  @RHF Final Energy:  -155.43556071132511

   => Energetics <=

    Nuclear Repulsion Energy =            130.9130784085857613
    One-Electron Energy =                -468.4022805446891198
    Two-Electron Energy =                 182.0536414247782488
    Total Energy =                       -155.4355607113251097

Computation Completed


Properties will be evaluated at   0.000000,   0.000000,   0.000000 [a0]

Properties computed using the SCF density matrix


 Multipole Moments:

 ------------------------------------------------------------------------------------
     Multipole            Electronic (a.u.)      Nuclear  (a.u.)        Total (a.u.)
 ------------------------------------------------------------------------------------

 L = 1.  Multiply by 2.5417464519 to convert [e a0] to [Debye]
 Dipole X            :          0.1894109           -0.1430325            0.0463784
 Dipole Y            :          0.1224418           -0.0924611            0.0299807
 Dipole Z            :          0.1499533           -0.1132364            0.0367169
 Magnitude           :                                                    0.0663169

 ------------------------------------------------------------------------------------

*** tstop() called on Barrys-MacBook-Pro.local at Fri May 10 11:16:09 2024
Module time:
	user time   =       2.78 seconds =       0.05 minutes
	system time =       0.03 seconds =       0.00 minutes
	total time  =          1 seconds =       0.02 minutes
Total time:
	user time   =     312.83 seconds =       5.21 minutes
	system time =       6.95 seconds =       0.12 minutes
	total time  =      75285 seconds =    1254.75 minutes

*** tstart() called on Barrys-MacBook-Pro.local
*** at Fri May 10 11:16:09 2024


         ------------------------------------------------------------
                                   SCF GRAD                          
                          Rob Parrish, Justin Turney,                
                       Andy Simmonett, and Alex Sokolov              
         ------------------------------------------------------------

  ==> Geometry <==

    Molecular point group: c1
    Full point group: C1

    Geometry (in Angstrom), charge = 0, multiplicity = 1:

       Center              X                  Y                   Z               Mass       
    ------------   -----------------  -----------------  -----------------  -----------------
         C            0.841860934375    -0.273351619612    -1.604859285376    12.000000000000
         C            0.841860934375    -0.273351619612    -0.058957769920    12.000000000000
         H            0.841860934375     0.748804815399    -1.968481873213     1.007825032230
         H            1.729927817673    -0.772113712387    -1.981760885665     1.007825032230
         H           -0.025072265174    -0.781620081053    -2.019457802519     1.007825032230
         C           -0.236882652555     0.664431068439     0.537908265425    12.000000000000
         H            0.909791729625    -1.183527929152     0.529612286551     1.007825032230
         H            1.794296868779     0.251314876683     0.029033877207     1.007825032230
         C           -1.434025310816    -0.109444479428     1.136053342943    12.000000000000
         H            0.142222377621     1.000519918173     1.504073540180     1.007825032230
         H           -0.358102930727     1.540158959369    -0.092850415090     1.007825032230
         H           -2.060663823082     0.558314300247     1.719922863323     1.007825032230
         H           -2.057551923963    -0.564661950116     0.370681847904     1.007825032230
         H           -1.069281761217    -0.895817623988     1.788437105837     1.007825032230

  Nuclear repulsion =  130.913078408585818

  ==> Basis Set <==

  -AO BASIS SET INFORMATION:
    Name                   = STO-3G
    Blend                  = STO-3G
    Total number of shells = 22
    Number of primitives   = 66
    Number of AO           = 30
    Number of SO           = 30
    Maximum AM             = 1
    Spherical Harmonics    = TRUE

  -Contraction Scheme:
    Atom   Type   All Primitives // Shells:
   ------ ------ --------------------------
       1     C     6s 3p // 2s 1p 
       2     C     6s 3p // 2s 1p 
       3     H     3s // 1s 
       4     H     3s // 1s 
       5     H     3s // 1s 
       6     C     6s 3p // 2s 1p 
       7     H     3s // 1s 
       8     H     3s // 1s 
       9     C     6s 3p // 2s 1p 
      10     H     3s // 1s 
      11     H     3s // 1s 
      12     H     3s // 1s 
      13     H     3s // 1s 
      14     H     3s // 1s 

  ==> DirectJKGrad: Integral-Direct SCF Gradients <==

    Gradient:                    1
    J tasked:                  Yes
    K tasked:                  Yes
    wK tasked:                  No
    Integrals threads:           4
    Schwarz Cutoff:          1E-08


  -Nuclear Gradient:
     Atom            X                  Y                   Z
    ------   -----------------  -----------------  -----------------
       1       -1.245708621547     0.814105724552     5.722928162311
       2       -3.717034589930     2.611505374634    -1.431134076059
       3       -0.183627322077    -1.723211234877     1.246504739838
       4       -1.635954373579     0.922867537620     1.096506776347
       5        1.338146296984     0.987743021611     1.287727170888
       6        0.624195808879    -4.610826007717    -1.017410984964
       7       -0.567929143804     1.905023282311    -1.078592069263
       8       -2.143627214981    -0.808104158553    -0.387975201618
       9        4.973796480794     1.595862840293    -2.771468083910
      10       -0.764629256897    -1.071895866167    -1.914438800250
      11        0.381728121260    -2.025389974705     0.931180502433
      12        1.468398585112    -1.031181825797    -1.229157511563
      13        1.592570342357     0.906775879084     1.032468126856
      14       -0.120325112570     1.526725407714    -1.487138751048


  -Core Hamiltonian Gradient:
     Atom            X                  Y                   Z
    ------   -----------------  -----------------  -----------------
       1        3.020975711185    -1.083881885948   -10.557122452601
       2        5.912497174458    -6.048196432551     2.543674211061
       3        0.353774308182     5.080191419801    -3.066337278520
       4        4.555959084686    -2.558203338976    -2.720945450167
       5       -4.023070403042    -2.772218691242    -3.167437790640
       6       -1.983673354069     8.587929786142     0.566708393306
       7        1.316461062612    -5.212853162791     3.614154619512
       8        5.699041215288     2.506872748211     0.325781843772
       9       -8.926727778722    -2.733809849469     5.881642132672
      10        1.713013159582     2.284543277475     5.542207920849
      11       -0.526149210591     5.723737027686    -2.988481215372
      12       -3.824168875690     3.031259299173     3.300289086675
      13       -4.117960497996    -2.490431570622    -3.277668294857
      14        0.830028404117    -4.314938626888     4.003534274310


  -Overlap Gradient:
     Atom            X                  Y                   Z
    ------   -----------------  -----------------  -----------------
       1       -0.004150302968    -0.009412750011    -0.046876353911
       2        0.073921882324     0.037264169267     0.016263852744
       3       -0.000337999457    -0.164848556317     0.059474243852
       4       -0.142436311938     0.079014100915     0.061445175473
       5        0.137153547282     0.080675359641     0.068022955040
       6        0.034543767035     0.032851793469     0.069606329306
       7       -0.014943576461     0.145406721588    -0.110328864952
       8       -0.143429151954    -0.081430950290     0.000246485035
       9       -0.042162275703    -0.020525219767     0.010211609658
      10       -0.048168339834    -0.042424503146    -0.151930778435
      11        0.006831676590    -0.150650485790     0.103906897162
      12        0.100655043182    -0.106023005756    -0.094522584837
      13        0.100695306876     0.073078547657     0.120277655307
      14       -0.058173264972     0.127024778542    -0.105796621443


  -Coulomb Gradient:
     Atom            X                  Y                   Z
    ------   -----------------  -----------------  -----------------
       1       -1.770872425822     0.277918879066     4.796013170196
       2       -2.145515193501     3.450609973453    -1.092676372006
       3       -0.170099875015    -3.500669555156     1.873035896130
       4       -3.044758294783     1.705943518232     1.679066281345
       5        2.807168138129     1.856016849637     1.939213771298
       6        1.382570772749    -3.943806656520     0.488663721599
       7       -0.758676552606     3.434942051399    -2.613596679212
       8       -3.689392589140    -1.770291173170     0.045579713113
       9        3.928416779229     1.116798144926    -3.087921423228
      10       -1.003549741221    -1.263394491182    -3.760897692732
      11        0.164588946845    -3.818979835035     2.143270082217
      12        2.445444262941    -2.093361917426    -2.153531062493
      13        2.614037495878     1.648442153599     2.352655899025
      14       -0.759361723684     2.899832058177    -2.608875305252


  -Exchange Gradient:
     Atom            X                  Y                   Z
    ------   -----------------  -----------------  -----------------
       1        0.021897334538     0.035482393465     0.088396473576
       2       -0.151890492191    -0.103158923984    -0.019947891147
       3       -0.000296392557     0.308087925424    -0.115460036842
       4        0.267013124945    -0.149893563218    -0.115887388410
       5       -0.259202295536    -0.153335200650    -0.124412711670
       6       -0.077361125121    -0.045037266619    -0.161546214496
       7        0.028534630200    -0.262622056909     0.205985711024
       8        0.276514711329     0.156659973224    -0.011471281001
       9        0.090412391453     0.037118285437     0.000516885476
      10        0.084139295264     0.076479670960     0.296994572216
      11       -0.007169757241     0.276432951255    -0.189071674721
      12       -0.190353385838     0.199449181405     0.176577397961
      13       -0.187643273163    -0.135521574054    -0.229346779286
      14        0.105405233918    -0.240141795734     0.198672937320


  -Total Gradient:
     Atom            X                  Y                   Z
    ------   -----------------  -----------------  -----------------
       1        0.022141695386     0.034212361124     0.003338999572
       2       -0.028021218840    -0.051975839181     0.016179724594
       3       -0.000587280924    -0.000450001125    -0.002782435542
       4       -0.000176770668    -0.000271745428     0.000185394588
       5        0.000195283817    -0.001118661004     0.003113394915
       6       -0.019724130528     0.021111648754    -0.053978755249
       7        0.003446419941     0.009896835597     0.017622717109
       8       -0.000893029459     0.003706439422    -0.027838440699
       9        0.023735597051    -0.004555798580     0.032981120669
      10       -0.019194883107    -0.016691912060     0.011935221649
      11        0.019829776863     0.005149683409     0.000804591719
      12       -0.000024370293     0.000141731598    -0.000344674256
      13        0.001699373951     0.002343435663    -0.001613392956
      14       -0.002426463191    -0.001498178190     0.000396533887


*** tstop() called on Barrys-MacBook-Pro.local at Fri May 10 11:16:09 2024
Module time:
	user time   =       0.46 seconds =       0.01 minutes
	system time =       0.01 seconds =       0.00 minutes
	total time  =          0 seconds =       0.00 minutes
Total time:
	user time   =     313.29 seconds =       5.22 minutes
	system time =       6.96 seconds =       0.12 minutes
	total time  =      75285 seconds =    1254.75 minutes

    			-----------------------------------------

    			 OPTKING 3.0: for geometry optimizations 

    			     By R.A. King, Bethel University     

    			        with contributions from          

    			    A.V. Copan, J. Cayton, A. Heide      

    			-----------------------------------------

    
	                            ===> Fragment 1 <== 

	 Z (Atomic Numbers)          Masses                          Geom                  
	       6.000000            12.000000          1.59088660 -0.51655970 -3.03274452   
	       6.000000            12.000000          1.59088660 -0.51655970 -0.11141404   
	       1.000000             1.007825          1.59088660  1.41503602 -3.71989162   
	       1.000000             1.007825          3.26908979 -1.45908345 -3.74498532   
	       1.000000             1.007825         -0.04737971 -1.47704789 -3.81622217   
	       6.000000            12.000000         -0.44764334  1.25559275  1.01649930   
	       1.000000             1.007825          1.71925720 -2.23654365  1.00082217   
	       1.000000             1.007825          3.39072967  0.47491629  0.05486608   
	       6.000000            12.000000         -2.70991509 -0.20682009  2.14682968   
	       1.000000             1.007825          0.26876134  1.89070863  2.84228706   
	       1.000000             1.007825         -0.67671646  2.91047862 -0.17546186   
	       1.000000             1.007825         -3.89409026  1.05506112  3.25018317   
	       1.000000             1.007825         -3.88820963 -1.06705644  0.70048717   
	       1.000000             1.007825         -2.02064968 -1.69284997  3.37965632   

	 - Coordinate -           - BOHR/RAD -       - ANG/DEG -
	 R(1,2)           =         2.921330           1.545902
	 R(1,3)           =         2.050179           1.084908
	 R(1,4)           =         2.052317           1.086039
	 R(1,5)           =         2.054335           1.087107
	 R(2,6)           =         2.927169           1.548991
	 R(2,7)           =         2.052290           1.086025
	 R(2,8)           =         2.061579           1.090941
	 R(6,9)           =         2.921330           1.545901
	 R(6,10)          =         2.061579           1.090941
	 R(6,11)          =         2.052290           1.086025
	 R(9,12)          =         2.052317           1.086039
	 R(9,13)          =         2.054335           1.087107
	 R(9,14)          =         2.050179           1.084908
	 B(1,2,6)         =         1.966357         112.663961
	 B(1,2,7)         =         2.143551         122.816409
	 B(1,2,8)         =         1.651541          94.626312
	 B(2,1,3)         =         1.912576         109.582540
	 B(2,1,4)         =         1.925212         110.306518
	 B(2,1,5)         =         1.962083         112.419052
	 B(2,6,9)         =         1.966357         112.663942
	 B(2,6,10)        =         1.860595         106.604239
	 B(2,6,11)        =         1.919969         110.006113
	 B(3,1,4)         =         1.892696         108.443498
	 B(3,1,5)         =         1.888804         108.220519
	 B(4,1,5)         =         1.880763         107.759757
	 B(6,2,7)         =         1.919969         110.006128
	 B(6,2,8)         =         1.860595         106.604217
	 B(6,9,12)        =         1.925212         110.306497
	 B(6,9,13)        =         1.962083         112.419064
	 B(6,9,14)        =         1.912576         109.582551
	 B(7,2,8)         =         1.880460         107.742394
	 B(9,6,10)        =         1.651541          94.626323
	 B(9,6,11)        =         2.143551         122.816422
	 B(10,6,11)       =         1.880459         107.742391
	 B(12,9,13)       =         1.880763         107.759757
	 B(12,9,14)       =         1.892696         108.443497
	 B(13,9,14)       =         1.888804         108.220517
	[D(1,2,6,9)[110.00,130.00]=         1.854616         106.261648
	 D(1,2,6,10)      =        -2.640338        -151.280215
	 D(1,2,6,11)      =        -0.606145         -34.729549
	 D(2,6,9,12)      =         2.937710         168.318387
	 D(2,6,9,13)      =        -1.245881         -71.383735
	 D(2,6,9,14)      =         0.855188          48.998663
	 D(3,1,2,6)       =         0.855187          48.998633
	 D(3,1,2,7)       =         3.216089         184.268343
	 D(3,1,2,8)       =        -1.067287         -61.151037
	 D(4,1,2,6)       =         2.937710         168.318363
	 D(4,1,2,7)       =        -0.984574         -56.411926
	 D(4,1,2,8)       =         1.015235          58.168694
	 D(5,1,2,6)       =        -1.245881         -71.383751
	 D(5,1,2,7)       =         1.115020          63.885959
	 D(5,1,2,8)       =         3.114829         178.466579
	 D(7,2,6,9)       =        -0.606145         -34.729567
	 D(7,2,6,10)      =         1.182087          67.728570
	 D(7,2,6,11)      =        -3.066906        -175.720765
	 D(8,2,6,9)       =        -2.640338        -151.280231
	 D(8,2,6,10)      =        -0.852106         -48.822094
	 D(8,2,6,11)      =         1.182087          67.728571
	 D(10,6,9,12)     =         1.015235          58.168691
	 D(10,6,9,13)     =         3.114829         178.466569
	 D(10,6,9,14)     =        -1.067287         -61.151033
	 D(11,6,9,12)     =        -0.984574         -56.411938
	 D(11,6,9,13)     =         1.115020          63.885941
	 D(11,6,9,14)     =         3.216089         184.268338
