
    -----------------------------------------------------------------------
          Psi4: An Open-Source Ab Initio Electronic Structure Package
                               Psi4 1.9.1 release

                         Git: Rev {} zzzzzzz 


    D. G. A. Smith, L. A. Burns, A. C. Simmonett, R. M. Parrish,
    M. C. Schieber, R. Galvelis, P. Kraus, H. Kruse, R. Di Remigio,
    A. Alenaizan, A. M. James, S. Lehtola, J. P. Misiewicz, M. Scheurer,
    R. A. Shaw, J. B. Schriber, Y. Xie, Z. L. Glick, D. A. Sirianni,
    J. S. O'Brien, J. M. Waldrop, A. Kumar, E. G. Hohenstein,
    B. P. Pritchard, B. R. Brooks, H. F. Schaefer III, A. Yu. Sokolov,
    K. Patkowski, A. E. DePrince III, U. Bozkaya, R. A. King,
    F. A. Evangelista, J. M. Turney, T. D. Crawford, C. D. Sherrill,
    J. Chem. Phys. 152(18) 184108 (2020). https://doi.org/10.1063/5.0006002

                            Additional Code Authors
    E. T. Seidl, C. L. Janssen, E. F. Valeev, M. L. Leininger,
    J. F. Gonthier, R. M. Richard, H. R. McAlexander, M. Saitow, X. Wang,
    P. Verma, M. H. Lechner, A. Jiang, S. Behnle, A. G. Heide,
    M. F. Herbst, and D. L. Poole

             Previous Authors, Complete List of Code Contributors,
                       and Citations for Specific Modules
    https://github.com/psi4/psi4/blob/master/codemeta.json
    https://github.com/psi4/psi4/graphs/contributors
    http://psicode.org/psi4manual/master/introduction.html#citing-psifour

    -----------------------------------------------------------------------


    Psi4 started on: Tuesday, 07 May 2024 08:33PM

    Process ID: 34420
    Host:       Barrys-MacBook-Pro.local
    PSIDATADIR: /Users/blink/psi4conda/share/psi4
    Memory:     3.7 GiB
    Threads:    4
      Threads set to 4 by Python driver.

Scratch directory: /tmp/
gradient() will perform analytic gradient computation.
   => Libint2 <=

    Primary   basis highest AM E, G, H:  5, 4, 3
    Auxiliary basis highest AM E, G, H:  6, 5, 4
    Onebody   basis highest AM E, G, H:  6, 5, 4
    Solid Harmonics ordering:            Gaussian

*** tstart() called on Barrys-MacBook-Pro.local
*** at Tue May  7 20:59:49 2024

   => Loading Basis Set <=

    Name: 6-31+G*
    Role: ORBITAL
    Keyword: BASIS
    atoms 1-3, 6    entry C          line   119 file /Users/blink/psi4conda/share/psi4/basis/6-31pgs.gbs 
    atoms 4-5, 7-14 entry H          line    46 file /Users/blink/psi4conda/share/psi4/basis/6-31pgs.gbs 


         ---------------------------------------------------------
                                   SCF
               by Justin Turney, Rob Parrish, Andy Simmonett
                          and Daniel G. A. Smith
                              RHF Reference
                        4 Threads,   3814 MiB Core
         ---------------------------------------------------------

  ==> Geometry <==

    Molecular point group: c2h
    Full point group: C2h

    Geometry (in Angstrom), charge = 0, multiplicity = 1:

       Center              X                  Y                   Z               Mass       
    ------------   -----------------  -----------------  -----------------  -----------------
         C            0.000000000000     0.772571776269     0.000000000000    12.000000000000
         C            0.000000000000    -0.772571776269     0.000000000000    12.000000000000
         C           -1.424447682532     1.361251228121     0.000000000000    12.000000000000
         H            0.537727168615     1.131405826150     0.875763185763     1.007825032230
         H            0.537727168615     1.131405826150    -0.875763185763     1.007825032230
         C            1.424447682532    -1.361251228121     0.000000000000    12.000000000000
         H           -0.537727168615    -1.131405826150     0.875763185763     1.007825032230
         H           -0.537727168615    -1.131405826150    -0.875763185763     1.007825032230
         H           -1.389504472895     2.446635308601     0.000000000000     1.007825032230
         H           -1.973978916331     1.039028627184    -0.879535157420     1.007825032230
         H           -1.973978916331     1.039028627184     0.879535157420     1.007825032230
         H            1.389504472895    -2.446635308601     0.000000000000     1.007825032230
         H            1.973978916331    -1.039028627184    -0.879535157420     1.007825032230
         H            1.973978916331    -1.039028627184     0.879535157420     1.007825032230

  Running in c2h symmetry.

  Rotational constants: A =      0.77779  B =      0.11991  C =      0.11251 [cm^-1]
  Rotational constants: A =  23317.64790  B =   3594.82504  C =   3372.83531 [MHz]
  Nuclear repulsion =  130.230586940894710

  Charge       = 0
  Multiplicity = 1
  Electrons    = 34
  Nalpha       = 17
  Nbeta        = 17

  ==> Algorithm <==

  SCF Algorithm Type is DIRECT.
  DIIS enabled.
  MOM disabled.
  Fractional occupation disabled.
  Guess Type is SAD.
  Energy threshold   = 1.00e-08
  Density threshold  = 1.00e-08
  Integral threshold = 1.00e-08

  ==> Primary Basis <==

  -AO BASIS SET INFORMATION:
    Name                   = 6-31+G*
    Blend                  = 6-31+G*
    Total number of shells = 52
    Number of primitives   = 108
    Number of AO           = 96
    Number of SO           = 96
    Maximum AM             = 2
    Spherical Harmonics    = FALSE

  -Contraction Scheme:
    Atom   Type   All Primitives // Shells:
   ------ ------ --------------------------
       1     C     11s 5p 1d // 4s 3p 1d 
       2     C     11s 5p 1d // 4s 3p 1d 
       3     C     11s 5p 1d // 4s 3p 1d 
       4     H     4s // 2s 
       5     H     4s // 2s 
       6     C     11s 5p 1d // 4s 3p 1d 
       7     H     4s // 2s 
       8     H     4s // 2s 
       9     H     4s // 2s 
      10     H     4s // 2s 
      11     H     4s // 2s 
      12     H     4s // 2s 
      13     H     4s // 2s 
      14     H     4s // 2s 

   => Loading Basis Set <=

    Name: (6-31+G* AUX)
    Role: JKFIT
    Keyword: DF_BASIS_SCF
    atoms 1-3, 6    entry C          line   194 file /Users/blink/psi4conda/share/psi4/basis/heavy-aug-cc-pvdz-jkfit.gbs 
    atoms 4-5, 7-14 entry H          line   116 file /Users/blink/psi4conda/share/psi4/basis/heavy-aug-cc-pvdz-jkfit.gbs 

  Starting with a DF guess...

  ==> Integral Setup <==

  DFHelper Memory: AOs need 0.049 GiB; user supplied 2.794 GiB. 
  Using in-core AOs.

  ==> MemDFJK: Density-Fitted J/K Matrices <==

    J tasked:                   Yes
    K tasked:                   Yes
    wK tasked:                   No
    OpenMP threads:               4
    Memory [MiB]:              2861
    Algorithm:                 Core
    Schwarz Cutoff:           1E-08
    Mask sparsity (%):       2.5825
    Fitting Condition:        1E-10

   => Auxiliary Basis Set <=

  -AO BASIS SET INFORMATION:
    Name                   = (6-31+G* AUX)
    Blend                  = HEAVY-AUG-CC-PVDZ-JKFIT
    Total number of shells = 202
    Number of primitives   = 202
    Number of AO           = 654
    Number of SO           = 654
    Maximum AM             = 3
    Spherical Harmonics    = FALSE

  -Contraction Scheme:
    Atom   Type   All Primitives // Shells:
   ------ ------ --------------------------
       1     C     11s 8p 6d 3f // 11s 8p 6d 3f 
       2     C     11s 8p 6d 3f // 11s 8p 6d 3f 
       3     C     11s 8p 6d 3f // 11s 8p 6d 3f 
       4     H     4s 3p 2d // 4s 3p 2d 
       5     H     4s 3p 2d // 4s 3p 2d 
       6     C     11s 8p 6d 3f // 11s 8p 6d 3f 
       7     H     4s 3p 2d // 4s 3p 2d 
       8     H     4s 3p 2d // 4s 3p 2d 
       9     H     4s 3p 2d // 4s 3p 2d 
      10     H     4s 3p 2d // 4s 3p 2d 
      11     H     4s 3p 2d // 4s 3p 2d 
      12     H     4s 3p 2d // 4s 3p 2d 
      13     H     4s 3p 2d // 4s 3p 2d 
      14     H     4s 3p 2d // 4s 3p 2d 

  Minimum eigenvalue in the overlap matrix is 1.1207762928E-04.
  Reciprocal condition number of the overlap matrix is 1.3498925429E-05.
    Using symmetric orthogonalization.

  ==> Pre-Iterations <==

  SCF Guess: Superposition of Atomic Densities via on-the-fly atomic UHF (no occupation information).

   -------------------------
    Irrep   Nso     Nmo    
   -------------------------
     Ag        34      34 
     Bg        14      14 
     Au        14      14 
     Bu        34      34 
   -------------------------
    Total      96      96
   -------------------------

  ==> Iterations <==

                           Total Energy        Delta E     RMS |[F,P]|

   @DF-RHF iter SAD:  -156.50963404991299   -1.56510e+02   0.00000e+00 
   @DF-RHF iter   1:  -157.13364360923677   -6.24010e-01   9.93657e-03 DIIS/ADIIS
   @DF-RHF iter   2:  -157.27092903067881   -1.37285e-01   4.38486e-03 DIIS/ADIIS
   @DF-RHF iter   3:  -157.29780804401244   -2.68790e-02   7.40508e-04 DIIS/ADIIS
   @DF-RHF iter   4:  -157.29931917655497   -1.51113e-03   1.42263e-04 DIIS/ADIIS
   @DF-RHF iter   5:  -157.29936045914755   -4.12826e-05   3.99349e-05 DIIS
   @DF-RHF iter   6:  -157.29936439075649   -3.93161e-06   3.65489e-06 DIIS
   @DF-RHF iter   7:  -157.29936444540562   -5.46491e-08   7.42942e-07 DIIS
   @DF-RHF iter   8:  -157.29936444764226   -2.23665e-09   1.65158e-07 DIIS
   @DF-RHF iter   9:  -157.29936444775180   -1.09537e-10   3.37859e-08 DIIS
   @DF-RHF iter  10:  -157.29936444775615   -4.34852e-12   4.94557e-09 DIIS

  DF guess converged.

  ==> DirectJK: Integral-Direct J/K Matrices <==

    J tasked:                  Yes
    K tasked:                  Yes
    wK tasked:                  No
    Integrals threads:           4
    Screening Type:           CSAM
    Screening Cutoff:        1E-08
    Incremental Fock:           No

   @RHF iter  11:  -157.29937128170312   -1.57299e+02   6.08354e-06 DIIS
   @RHF iter  12:  -157.29937132954981   -4.78467e-08   1.15998e-06 DIIS
   @RHF iter  13:  -157.29937133187886   -2.32905e-09   1.56356e-07 DIIS
   @RHF iter  14:  -157.29937133193317   -5.43139e-11   5.89455e-08 DIIS
   @RHF iter  15:  -157.29937133193999   -6.82121e-12   8.34813e-09 DIIS
  Energy and wave function converged.


  ==> Post-Iterations <==

    Orbital Energies [Eh]
    ---------------------

    Doubly Occupied:                                                      

       1Ag   -11.218195     1Bu   -11.217635     2Ag   -11.210306  
       2Bu   -11.210305     3Ag    -1.067036     3Bu    -0.980604  
       4Ag    -0.863105     4Bu    -0.791224     1Au    -0.639589  
       5Ag    -0.585169     5Bu    -0.572249     1Bg    -0.571085  
       6Bu    -0.516420     2Au    -0.500205     6Ag    -0.468143  
       2Bg    -0.467528     7Ag    -0.453739  

    Virtual:                                                              

       7Bu     0.087562     8Ag     0.092407     8Bu     0.100097  
       3Au     0.113137     9Ag     0.118371    10Ag     0.132439  
       3Bg     0.138714     4Bg     0.150186     9Bu     0.158167  
      11Ag     0.163816    10Bu     0.172873     4Au     0.179096  
      11Bu     0.211299    12Ag     0.226592    13Ag     0.242321  
      12Bu     0.271322     5Au     0.341722    13Bu     0.360659  
       5Bg     0.369677     6Au     0.372293    14Ag     0.373656  
      14Bu     0.424780     6Bg     0.427879    15Bu     0.448393  
      15Ag     0.448428    16Ag     0.466671    16Bu     0.496222  
      17Ag     0.498991    17Bu     0.512843    18Ag     0.822309  
      18Bu     0.830719     7Au     0.850510    19Ag     0.866040  
       7Bg     0.878252    19Bu     0.931855     8Au     0.948437  
      20Ag     0.960973    20Bu     0.989185    21Bu     1.065602  
       8Bg     1.069719    21Ag     1.113946     9Au     1.189645  
      22Ag     1.225071     9Bg     1.232525    10Au     1.250571  
      22Bu     1.270714    23Ag     1.276774    10Bg     1.355665  
      23Bu     1.372521    24Ag     1.385723    24Bu     1.407241  
      25Ag     1.407736    25Bu     1.622436    26Ag     1.712954  
      11Au     1.713205    26Bu     1.748756    27Ag     1.924908  
      27Bu     1.945126    11Bg     2.141600    28Ag     2.219862  
      28Bu     2.226132    12Au     2.284152    29Ag     2.312369  
      29Bu     2.347288    12Bg     2.394958    30Ag     2.523126  
      13Bg     2.608359    13Au     2.641619    30Bu     2.665454  
      31Ag     2.756797    14Bg     2.758254    14Au     2.765044  
      31Bu     2.938374    32Ag     3.042125    32Bu     3.115030  
      33Ag     4.606865    33Bu     4.725505    34Ag     4.814421  
      34Bu     4.964828  

    Final Occupation by Irrep:
             Ag    Bg    Au    Bu 
    DOCC [     7,    2,    2,    6 ]
    NA   [     7,    2,    2,    6 ]
    NB   [     7,    2,    2,    6 ]

  @RHF Final Energy:  -157.29937133193999

   => Energetics <=

    Nuclear Repulsion Energy =            130.2305869408947103
    One-Electron Energy =                -468.3948421818811880
    Two-Electron Energy =                 180.8648839090464548
    Total Energy =                       -157.2993713319399944

Computation Completed


Properties will be evaluated at   0.000000,   0.000000,   0.000000 [a0]

Properties computed using the SCF density matrix


 Multipole Moments:

 ------------------------------------------------------------------------------------
     Multipole            Electronic (a.u.)      Nuclear  (a.u.)        Total (a.u.)
 ------------------------------------------------------------------------------------

 L = 1.  Multiply by 2.5417464519 to convert [e a0] to [Debye]
 Dipole X            :          0.0000000           -0.0000000           -0.0000000
 Dipole Y            :          0.0000000            0.0000000            0.0000000
 Dipole Z            :          0.0000000           -0.0000000           -0.0000000
 Magnitude           :                                                    0.0000000

 ------------------------------------------------------------------------------------

*** tstop() called on Barrys-MacBook-Pro.local at Tue May  7 20:59:51 2024
Module time:
	user time   =       8.40 seconds =       0.14 minutes
	system time =       0.16 seconds =       0.00 minutes
	total time  =          2 seconds =       0.03 minutes
Total time:
	user time   =      33.56 seconds =       0.56 minutes
	system time =       0.82 seconds =       0.01 minutes
	total time  =        998 seconds =      16.63 minutes

*** tstart() called on Barrys-MacBook-Pro.local
*** at Tue May  7 20:59:51 2024


         ------------------------------------------------------------
                                   SCF GRAD                          
                          Rob Parrish, Justin Turney,                
                       Andy Simmonett, and Alex Sokolov              
         ------------------------------------------------------------

  ==> Geometry <==

    Molecular point group: c2h
    Full point group: C2h

    Geometry (in Angstrom), charge = 0, multiplicity = 1:

       Center              X                  Y                   Z               Mass       
    ------------   -----------------  -----------------  -----------------  -----------------
         C            0.000000000000     0.772571776269     0.000000000000    12.000000000000
         C            0.000000000000    -0.772571776269     0.000000000000    12.000000000000
         C           -1.424447682532     1.361251228121     0.000000000000    12.000000000000
         H            0.537727168615     1.131405826150     0.875763185763     1.007825032230
         H            0.537727168615     1.131405826150    -0.875763185763     1.007825032230
         C            1.424447682532    -1.361251228121     0.000000000000    12.000000000000
         H           -0.537727168615    -1.131405826150     0.875763185763     1.007825032230
         H           -0.537727168615    -1.131405826150    -0.875763185763     1.007825032230
         H           -1.389504472895     2.446635308601     0.000000000000     1.007825032230
         H           -1.973978916331     1.039028627184    -0.879535157420     1.007825032230
         H           -1.973978916331     1.039028627184     0.879535157420     1.007825032230
         H            1.389504472895    -2.446635308601     0.000000000000     1.007825032230
         H            1.973978916331    -1.039028627184    -0.879535157420     1.007825032230
         H            1.973978916331    -1.039028627184     0.879535157420     1.007825032230

  Nuclear repulsion =  130.230586940894710

  ==> Basis Set <==

  -AO BASIS SET INFORMATION:
    Name                   = 6-31+G*
    Blend                  = 6-31+G*
    Total number of shells = 52
    Number of primitives   = 108
    Number of AO           = 96
    Number of SO           = 96
    Maximum AM             = 2
    Spherical Harmonics    = FALSE

  -Contraction Scheme:
    Atom   Type   All Primitives // Shells:
   ------ ------ --------------------------
       1     C     11s 5p 1d // 4s 3p 1d 
       2     C     11s 5p 1d // 4s 3p 1d 
       3     C     11s 5p 1d // 4s 3p 1d 
       4     H     4s // 2s 
       5     H     4s // 2s 
       6     C     11s 5p 1d // 4s 3p 1d 
       7     H     4s // 2s 
       8     H     4s // 2s 
       9     H     4s // 2s 
      10     H     4s // 2s 
      11     H     4s // 2s 
      12     H     4s // 2s 
      13     H     4s // 2s 
      14     H     4s // 2s 

  ==> DirectJKGrad: Integral-Direct SCF Gradients <==

    Gradient:                    1
    J tasked:                  Yes
    K tasked:                  Yes
    wK tasked:                  No
    Integrals threads:           4
    Schwarz Cutoff:          1E-08


  -Nuclear Gradient:
     Atom            X                  Y                   Z
    ------   -----------------  -----------------  -----------------
       1       -2.368223624344    -3.609344816370    -0.000000000000
       2        2.368223624344     3.609344816370     0.000000000000
       3        4.829723941819    -3.393166770735    -0.000000000000
       4       -1.140590776770    -1.052397564712    -1.661577313437
       5       -1.140590776770    -1.052397564712     1.661577313437
       6       -4.829723941819     3.393166770735    -0.000000000000
       7        1.140590776770     1.052397564712    -1.661577313437
       8        1.140590776770     1.052397564712     1.661577313437
       9        0.318209002041    -2.136291529901    -0.000000000000
      10        1.429215966495     0.191879671387     1.557331792800
      11        1.429215966495     0.191879671387    -1.557331792800
      12       -0.318209002041     2.136291529901    -0.000000000000
      13       -1.429215966495    -0.191879671387     1.557331792800
      14       -1.429215966495    -0.191879671387    -1.557331792800


  -Core Hamiltonian Gradient:
     Atom            X                  Y                   Z
    ------   -----------------  -----------------  -----------------
       1        2.616699195167     6.111925071812     0.000000000000
       2       -2.616699195167    -6.111925071812     0.000000000000
       3       -7.600574660459     5.740353978906     0.000000000000
       4        2.840633694897     2.427270352264     4.296423052436
       5        2.840633694897     2.427270352264    -4.296423052436
       6        7.600574660459    -5.740353978906    -0.000000000000
       7       -2.840633694897    -2.427270352264     4.296423052436
       8       -2.840633694897    -2.427270352264    -4.296423052436
       9       -0.498508450605     5.278271160259    -0.000000000000
      10       -3.323707087530    -0.808074060964    -4.010801186464
      11       -3.323707087530    -0.808074060964     4.010801186464
      12        0.498508450605    -5.278271160259    -0.000000000000
      13        3.323707087530     0.808074060964    -4.010801186464
      14        3.323707087530     0.808074060964     4.010801186464


  -Overlap Gradient:
     Atom            X                  Y                   Z
    ------   -----------------  -----------------  -----------------
       1        0.095380656719     0.035438462909    -0.000000000000
       2       -0.095380656719    -0.035438462909    -0.000000000000
       3       -0.110643357109     0.073787919495    -0.000000000000
       4       -0.085965676447    -0.058327096413    -0.140527780930
       5       -0.085965676447    -0.058327096413     0.140527780930
       6        0.110643357109    -0.073787919495    -0.000000000000
       7        0.085965676447     0.058327096413    -0.140527780930
       8        0.085965676447     0.058327096413     0.140527780930
       9       -0.006651087641    -0.177674585979     0.000000000000
      10        0.089747574493     0.052816720157     0.141495741031
      11        0.089747574493     0.052816720157    -0.141495741031
      12        0.006651087641     0.177674585979     0.000000000000
      13       -0.089747574493    -0.052816720157     0.141495741031
      14       -0.089747574493    -0.052816720157    -0.141495741031


  -Coulomb Gradient:
     Atom            X                  Y                   Z
    ------   -----------------  -----------------  -----------------
       1       -0.182474710681    -2.453643568217    -0.000000000000
       2        0.182474710681     2.453643568217     0.000000000000
       3        2.707199159899    -2.326426846249    -0.000000000000
       4       -1.754177206292    -1.410804151414    -2.720609654230
       5       -1.754177206292    -1.410804151414     2.720609654230
       6       -2.707199159899     2.326426846249    -0.000000000000
       7        1.754177206292     1.410804151414    -2.720609654230
       8        1.754177206292     1.410804151414     2.720609654230
       9        0.178112062962    -3.252775656943    -0.000000000000
      10        1.951092128751     0.648516645996     2.542291820701
      11        1.951092128751     0.648516645996    -2.542291820701
      12       -0.178112062962     3.252775656943     0.000000000000
      13       -1.951092128751    -0.648516645996     2.542291820701
      14       -1.951092128751    -0.648516645996    -2.542291820701


  -Exchange Gradient:
     Atom            X                  Y                   Z
    ------   -----------------  -----------------  -----------------
       1       -0.152815131516    -0.077370875585     0.000000000000
       2        0.152815131516     0.077370875585    -0.000000000000
       3        0.165119231147    -0.092270174321     0.000000000000
       4        0.139735429116     0.094233412257     0.227320782822
       5        0.139735429116     0.094233412257    -0.227320782822
       6       -0.165119231147     0.092270174321     0.000000000000
       7       -0.139735429116    -0.094233412257     0.227320782822
       8       -0.139735429116    -0.094233412257    -0.227320782822
       9        0.010265097456     0.288508671634    -0.000000000000
      10       -0.145579149853    -0.085573905895    -0.230462221378
      11       -0.145579149853    -0.085573905895     0.230462221378
      12       -0.010265097456    -0.288508671634    -0.000000000000
      13        0.145579149853     0.085573905895    -0.230462221378
      14        0.145579149853     0.085573905895     0.230462221378


  -Total Gradient:
     Atom            X                  Y                   Z
    ------   -----------------  -----------------  -----------------
       1        0.008566385344     0.007004274550     0.000000000000
       2       -0.008566385344    -0.007004274550     0.000000000000
       3       -0.009175684702     0.002278107096     0.000000000000
       4       -0.000364535496    -0.000025048018     0.001029086662
       5       -0.000364535496    -0.000025048018    -0.001029086662
       6        0.009175684702    -0.002278107096     0.000000000000
       7        0.000364535496     0.000025048018     0.001029086662
       8        0.000364535496     0.000025048018    -0.001029086662
       9        0.001426624214     0.000038059071     0.000000000000
      10        0.000769432357    -0.000434929318    -0.000144053310
      11        0.000769432357    -0.000434929318     0.000144053310
      12       -0.001426624214    -0.000038059071     0.000000000000
      13       -0.000769432357     0.000434929318    -0.000144053310
      14       -0.000769432357     0.000434929318     0.000144053310


*** tstop() called on Barrys-MacBook-Pro.local at Tue May  7 20:59:52 2024
Module time:
	user time   =       3.16 seconds =       0.05 minutes
	system time =       0.02 seconds =       0.00 minutes
	total time  =          1 seconds =       0.02 minutes
Total time:
	user time   =      36.72 seconds =       0.61 minutes
	system time =       0.84 seconds =       0.01 minutes
	total time  =        999 seconds =      16.65 minutes

    			-----------------------------------------

    			 OPTKING 3.0: for geometry optimizations 

    			     By R.A. King, Bethel University     

    			        with contributions from          

    			    A.V. Copan, J. Cayton, A. Heide      

    			-----------------------------------------

    
	                            ===> Fragment 1 <== 

	 Z (Atomic Numbers)          Masses                          Geom                  
	       6.000000            12.000000          0.00000000  1.45994907  0.00000000   
	       6.000000            12.000000          0.00000000 -1.45994907  0.00000000   
	       6.000000            12.000000         -2.69181600  2.57239201  0.00000000   
	       1.000000             1.007825          1.01615708  2.13804715  1.65495257   
	       1.000000             1.007825          1.01615708  2.13804715 -1.65495257   
	       6.000000            12.000000          2.69181600 -2.57239201  0.00000000   
	       1.000000             1.007825         -1.01615708 -2.13804715  1.65495257   
	       1.000000             1.007825         -1.01615708 -2.13804715 -1.65495257   
	       1.000000             1.007825         -2.62578290  4.62347066  0.00000000   
	       1.000000             1.007825         -3.73027953  1.96347954 -1.66208057   
	       1.000000             1.007825         -3.73027953  1.96347954  1.66208057   
	       1.000000             1.007825          2.62578290 -4.62347066  0.00000000   
	       1.000000             1.007825          3.73027953 -1.96347954 -1.66208057   
	       1.000000             1.007825          3.73027953 -1.96347954  1.66208057   

	 - Coordinate -           - BOHR/RAD -       - ANG/DEG -
	 R(1,2)           =         2.919898           1.545144
	 R(1,3)           =         2.912628           1.541296
	 R(1,4)           =         2.057003           1.088519
	 R(1,5)           =         2.057003           1.088519
	 R(2,6)           =         2.912628           1.541296
	 R(2,7)           =         2.057003           1.088519
	 R(2,8)           =         2.057003           1.088519
	 R(3,9)           =         2.052141           1.085946
	 R(3,10)          =         2.052241           1.085999
	 R(3,11)          =         2.052241           1.085999
	 R(6,12)          =         2.052141           1.085946
	 R(6,13)          =         2.052241           1.085999
	 R(6,14)          =         2.052241           1.085999
	 B(1,2,6)         =         1.962689         112.453770
	 B(1,2,7)         =         1.906733         109.247744
	 B(1,2,8)         =         1.906733         109.247744
	 B(1,3,9)         =         1.930505         110.609807
	 B(1,3,10)        =         1.932993         110.752337
	 B(1,3,11)        =         1.932993         110.752337
	 B(2,1,3)         =         1.962689         112.453770
	 B(2,1,4)         =         1.906733         109.247744
	 B(2,1,5)         =         1.906733         109.247744
	 B(2,6,12)        =         1.930505         110.609807
	 B(2,6,13)        =         1.932993         110.752337
	 B(2,6,14)        =         1.932993         110.752337
	 B(3,1,4)         =         1.907779         109.307669
	 B(3,1,5)         =         1.907779         109.307669
	 B(4,1,5)         =         1.869820         107.132796
	 B(6,2,7)         =         1.907779         109.307669
	 B(6,2,8)         =         1.907779         109.307669
	 B(7,2,8)         =         1.869820         107.132796
	 B(9,3,10)        =         1.888973         108.230155
	 B(9,3,11)        =         1.888973         108.230155
	 B(10,3,11)       =         1.887914         108.169532
	 B(12,6,13)       =         1.888973         108.230155
	 B(12,6,14)       =         1.888973         108.230155
	 B(13,6,14)       =         1.887914         108.169532
	 D(1,2,6,12)      =         3.141593         180.000000
	 D(1,2,6,13)      =        -1.047299         -60.005805
	 D(1,2,6,14)      =         1.047299          60.005805
	 D(2,1,3,9)       =         3.141593         180.000000
	 D(2,1,3,10)      =        -1.047299         -60.005805
	 D(2,1,3,11)      =         1.047299          60.005805
	 D(3,1,2,6)       =         3.141593         180.000000
	 D(3,1,2,7)       =        -1.020139         -58.449668
	 D(3,1,2,8)       =         1.020139          58.449668
	 D(4,1,2,6)       =        -1.020139         -58.449668
	 D(4,1,2,7)       =         1.101314          63.100665
	 D(4,1,2,8)       =         3.141593         180.000000
	 D(4,1,3,9)       =         1.020735          58.483826
	 D(4,1,3,10)      =         3.115029         178.478021
	 D(4,1,3,11)      =        -1.073558         -61.510369
	 D(5,1,2,6)       =         1.020139          58.449668
	 D(5,1,2,7)       =         3.141593         180.000000
	 D(5,1,2,8)       =        -1.101314         -63.100665
	 D(5,1,3,9)       =        -1.020735         -58.483826
	 D(5,1,3,10)      =         1.073558          61.510369
	 D(5,1,3,11)      =        -3.115029        -178.478021
	 D(7,2,6,12)      =         1.020735          58.483826
	 D(7,2,6,13)      =         3.115029         178.478021
	 D(7,2,6,14)      =        -1.073558         -61.510369
	 D(8,2,6,12)      =        -1.020735         -58.483826
	 D(8,2,6,13)      =         1.073558          61.510369
	 D(8,2,6,14)      =        -3.115029        -178.478021


	        --- Internal Coordinate Step in ANG or DEG, aJ/ANG or AJ/DEG ---
	-------------------------------------------------------------------------------
	           Coordinate      Previous         Force          Change          New 
	           ----------      --------        ------          ------        ------
	               R(1,2)       1.54514       -0.06921       -0.01580       1.52935
	               R(1,3)       1.54130       -0.05184       -0.01169       1.52960
	               R(1,4)       1.08852       -0.00527       -0.00097       1.08755
	               R(1,5)       1.08852       -0.00527       -0.00097       1.08755
	               R(2,6)       1.54130       -0.05184       -0.01169       1.52960
	               R(2,7)       1.08852       -0.00527       -0.00097       1.08755
	               R(2,8)       1.08852       -0.00527       -0.00097       1.08755
	               R(3,9)       1.08595       -0.00069       -0.00013       1.08582
	              R(3,10)       1.08600        0.00118        0.00022       1.08621
	              R(3,11)       1.08600        0.00118        0.00022       1.08621
	              R(6,12)       1.08595       -0.00069       -0.00013       1.08582
	              R(6,13)       1.08600        0.00118        0.00022       1.08621
	              R(6,14)       1.08600        0.00118        0.00022       1.08621
	             B(1,2,6)     112.45377        0.00010        0.49069     112.94446
	             B(1,2,7)     109.24774       -0.00003       -0.06496     109.18278
	             B(1,2,8)     109.24774       -0.00003       -0.06496     109.18278
	             B(1,3,9)     110.60981        0.00013        0.62617     111.23598
	            B(1,3,10)     110.75234        0.00006        0.24353     110.99587
	            B(1,3,11)     110.75234        0.00006        0.24353     110.99587
	             B(2,1,3)     112.45377        0.00010        0.49069     112.94446
	             B(2,1,4)     109.24774       -0.00003       -0.06496     109.18278
	             B(2,1,5)     109.24774       -0.00003       -0.06496     109.18278
	            B(2,6,12)     110.60981        0.00013        0.62617     111.23598
	            B(2,6,13)     110.75234        0.00006        0.24353     110.99587
	            B(2,6,14)     110.75234        0.00006        0.24353     110.99587
	             B(3,1,4)     109.30767       -0.00001        0.08451     109.39217
	             B(3,1,5)     109.30767       -0.00001        0.08451     109.39217
	             B(4,1,5)     107.13280       -0.00002       -0.58886     106.54394
	             B(6,2,7)     109.30767       -0.00001        0.08451     109.39217
	             B(6,2,8)     109.30767       -0.00001        0.08451     109.39217
	             B(7,2,8)     107.13280       -0.00002       -0.58886     106.54394
	            B(9,3,10)     108.23016       -0.00009       -0.39829     107.83186
	            B(9,3,11)     108.23016       -0.00009       -0.39829     107.83186
	           B(10,3,11)     108.16953       -0.00007       -0.37360     107.79593
	           B(12,6,13)     108.23016       -0.00009       -0.39829     107.83186
	           B(12,6,14)     108.23016       -0.00009       -0.39829     107.83186
	           B(13,6,14)     108.16953       -0.00007       -0.37360     107.79593
	          D(1,2,6,12)     180.00000        0.00000        0.00000     180.00000
	          D(1,2,6,13)     -60.00581        0.00001        0.07419     -59.93161
	          D(1,2,6,14)      60.00581       -0.00001       -0.07419      59.93161
	           D(2,1,3,9)     180.00000       -0.00000        0.00000     180.00000
	          D(2,1,3,10)     -60.00581        0.00001        0.07419     -59.93161
	          D(2,1,3,11)      60.00581       -0.00001       -0.07419      59.93161
	           D(3,1,2,6)     180.00000       -0.00000        0.00000     180.00000
	           D(3,1,2,7)     -58.44967        0.00003        0.38977     -58.05990
	           D(3,1,2,8)      58.44967       -0.00003       -0.38977      58.05990
	           D(4,1,2,6)     -58.44967        0.00003        0.38977     -58.05990
	           D(4,1,2,7)      63.10066        0.00006        0.77954      63.88020
	           D(4,1,2,8)     180.00000       -0.00000        0.00000     180.00000
	           D(4,1,3,9)      58.48383       -0.00002       -0.30612      58.17771
	          D(4,1,3,10)     178.47802       -0.00001       -0.23192     178.24610
	          D(4,1,3,11)     -61.51037       -0.00002       -0.38031     -61.89068
	           D(5,1,2,6)      58.44967       -0.00003       -0.38977      58.05990
	           D(5,1,2,7)     180.00000        0.00000        0.00000     180.00000
	           D(5,1,2,8)     -63.10066       -0.00006       -0.77954     -63.88020
	           D(5,1,3,9)     -58.48383        0.00002        0.30612     -58.17771
	          D(5,1,3,10)      61.51037        0.00002        0.38031      61.89068
	          D(5,1,3,11)    -178.47802        0.00001        0.23192    -178.24610
	          D(7,2,6,12)      58.48383       -0.00002       -0.30612      58.17771
	          D(7,2,6,13)     178.47802       -0.00001       -0.23192     178.24610
	          D(7,2,6,14)     -61.51037       -0.00002       -0.38031     -61.89068
	          D(8,2,6,12)     -58.48383        0.00002        0.30612     -58.17771
	          D(8,2,6,13)      61.51037        0.00002        0.38031      61.89068
	          D(8,2,6,14)    -178.47802        0.00001        0.23192    -178.24610
	-------------------------------------------------------------------------------

	                                 ==> Convergence Check <==                                  
    
	Measures of convergence in internal coordinates in au.
    
	Criteria marked as inactive (o), active & met (*), and active & unmet ( ).

	----------------------------------------------------------------------------------------------
	   Step    Total Energy     Delta E     Max Force     RMS Force      Max Disp      RMS Disp   
	----------------------------------------------------------------------------------------------
	  Convergence Criteria     1.00e-06 *    3.00e-04 *             o    1.20e-03 *             o
	----------------------------------------------------------------------------------------------
	     1    -157.29937133   -1.57e+02      8.40e-03      1.65e-03 o    2.99e-02      7.67e-03 o  ~
	----------------------------------------------------------------------------------------------

Next Geometry in Ang 
	Fragment 1 (Ang)

	    C  -0.0035371948   0.7646645637  -0.0000000000
	    C   0.0035371948  -0.7646645637  -0.0000000000
	    C  -1.4148668313   1.3544410561  -0.0000000000
	    H   0.5382086729   1.1245257909   0.8716557660
	    H   0.5382086729   1.1245257909  -0.8716557660
	    C   1.4148668313  -1.3544410561  -0.0000000000
	    H  -0.5382086729  -1.1245257909   0.8716557660
	    H  -0.5382086729  -1.1245257909  -0.8716557660
	    H  -1.3875148233   2.4399172797  -0.0000000000
	    H  -1.9698734485   1.0356949676  -0.8776273216
	    H  -1.9698734485   1.0356949676   0.8776273216
	    H   1.3875148233  -2.4399172797  -0.0000000000
	    H   1.9698734485  -1.0356949676  -0.8776273216
	    H   1.9698734485  -1.0356949676   0.8776273216


    Structure for next step:
    Molecular point group: c2h
    Full point group: C2h

    Geometry (in Angstrom), charge = 0, multiplicity = 1:

    C       
    C             1    1.529345
    C             1    1.529604      2  112.944460
    H             1    1.087553      2  109.182782      3  121.940100
    H             1    1.087553      2  109.182782      3 -121.940100
    C             2    1.529604      1  112.944460      3 -180.000000
    H             2    1.087553      1  109.182782      6  121.940100
    H             2    1.087553      1  109.182782      6 -121.940100
    H             3    1.085821      1  111.235979      2 -180.000000
    H             3    1.086214      1  110.995869      9  120.068389
    H             3    1.086214      1  110.995869      9 -120.068389
    H             6    1.085821      2  111.235979      1 -180.000000
    H             6    1.086214      2  110.995869     12  120.068389
    H             6    1.086214      2  110.995869     12 -120.068389


Scratch directory: /tmp/
gradient() will perform analytic gradient computation.
   => Libint2 <=

    Primary   basis highest AM E, G, H:  5, 4, 3
    Auxiliary basis highest AM E, G, H:  6, 5, 4
    Onebody   basis highest AM E, G, H:  6, 5, 4
    Solid Harmonics ordering:            Gaussian

*** tstart() called on Barrys-MacBook-Pro.local
*** at Tue May  7 20:59:52 2024

   => Loading Basis Set <=

    Name: 6-31+G*
    Role: ORBITAL
    Keyword: BASIS
    atoms 1-3, 6    entry C          line   119 file /Users/blink/psi4conda/share/psi4/basis/6-31pgs.gbs 
    atoms 4-5, 7-14 entry H          line    46 file /Users/blink/psi4conda/share/psi4/basis/6-31pgs.gbs 


         ---------------------------------------------------------
                                   SCF
               by Justin Turney, Rob Parrish, Andy Simmonett
                          and Daniel G. A. Smith
                              RHF Reference
                        4 Threads,   3814 MiB Core
         ---------------------------------------------------------

  ==> Geometry <==

    Molecular point group: c2h
    Full point group: C2h

    Geometry (in Angstrom), charge = 0, multiplicity = 1:

       Center              X                  Y                   Z               Mass       
    ------------   -----------------  -----------------  -----------------  -----------------
         C            0.000000000000     0.764672744881     0.000000000000    12.000000000000
         C            0.000000000000    -0.764672744881     0.000000000000    12.000000000000
         C           -1.408586370644     1.360971403501     0.000000000000    12.000000000000
         H            0.543404704245     1.122024134041     0.871655766009     1.007825032230
         H            0.543404704245     1.122024134041    -0.871655766009     1.007825032230
         C            1.408586370644    -1.360971403501     0.000000000000    12.000000000000
         H           -0.543404704245    -1.122024134041     0.871655766009     1.007825032230
         H           -0.543404704245    -1.122024134041    -0.871655766009     1.007825032230
         H           -1.376213499714     2.446309489824     0.000000000000     1.007825032230
         H           -1.965061493733     1.044796054211    -0.877627321577     1.007825032230
         H           -1.965061493733     1.044796054211     0.877627321577     1.007825032230
         H            1.376213499714    -2.446309489824     0.000000000000     1.007825032230
         H            1.965061493733    -1.044796054211    -0.877627321577     1.007825032230
         H            1.965061493733    -1.044796054211     0.877627321577     1.007825032230

  Running in c2h symmetry.

  Rotational constants: A =      0.78900  B =      0.12111  C =      0.11373 [cm^-1]
  Rotational constants: A =  23653.58326  B =   3630.88426  C =   3409.67928 [MHz]
  Nuclear repulsion =  130.856517126510738

  Charge       = 0
  Multiplicity = 1
  Electrons    = 34
  Nalpha       = 17
  Nbeta        = 17

  ==> Algorithm <==

  SCF Algorithm Type is DIRECT.
  DIIS enabled.
  MOM disabled.
  Fractional occupation disabled.
  Guess Type is READ.
  Energy threshold   = 1.00e-08
  Density threshold  = 1.00e-08
  Integral threshold = 1.00e-08

  ==> Primary Basis <==

  -AO BASIS SET INFORMATION:
    Name                   = 6-31+G*
    Blend                  = 6-31+G*
    Total number of shells = 52
    Number of primitives   = 108
    Number of AO           = 96
    Number of SO           = 96
    Maximum AM             = 2
    Spherical Harmonics    = FALSE

  -Contraction Scheme:
    Atom   Type   All Primitives // Shells:
   ------ ------ --------------------------
       1     C     11s 5p 1d // 4s 3p 1d 
       2     C     11s 5p 1d // 4s 3p 1d 
       3     C     11s 5p 1d // 4s 3p 1d 
       4     H     4s // 2s 
       5     H     4s // 2s 
       6     C     11s 5p 1d // 4s 3p 1d 
       7     H     4s // 2s 
       8     H     4s // 2s 
       9     H     4s // 2s 
      10     H     4s // 2s 
      11     H     4s // 2s 
      12     H     4s // 2s 
      13     H     4s // 2s 
      14     H     4s // 2s 

   => Loading Basis Set <=

    Name: (6-31+G* AUX)
    Role: JKFIT
    Keyword: DF_BASIS_SCF
    atoms 1-3, 6    entry C          line   194 file /Users/blink/psi4conda/share/psi4/basis/heavy-aug-cc-pvdz-jkfit.gbs 
    atoms 4-5, 7-14 entry H          line   116 file /Users/blink/psi4conda/share/psi4/basis/heavy-aug-cc-pvdz-jkfit.gbs 

   => Loading Basis Set <=

    Name: 6-31+G*
    Role: ORBITAL
    Keyword: BASIS
    atoms 1-3, 6    entry C          line   119 file /Users/blink/psi4conda/share/psi4/basis/6-31pgs.gbs 
    atoms 4-5, 7-14 entry H          line    46 file /Users/blink/psi4conda/share/psi4/basis/6-31pgs.gbs 

  Reading orbitals from file /tmp/butane_PES.default.34420.180.npy, no projection.

  Starting with a DF guess...

  ==> Integral Setup <==

  DFHelper Memory: AOs need 0.049 GiB; user supplied 2.794 GiB. 
  Using in-core AOs.

  ==> MemDFJK: Density-Fitted J/K Matrices <==

    J tasked:                   Yes
    K tasked:                   Yes
    wK tasked:                   No
    OpenMP threads:               4
    Memory [MiB]:              2861
    Algorithm:                 Core
    Schwarz Cutoff:           1E-08
    Mask sparsity (%):       2.4957
    Fitting Condition:        1E-10

   => Auxiliary Basis Set <=

  -AO BASIS SET INFORMATION:
    Name                   = (6-31+G* AUX)
    Blend                  = HEAVY-AUG-CC-PVDZ-JKFIT
    Total number of shells = 202
    Number of primitives   = 202
    Number of AO           = 654
    Number of SO           = 654
    Maximum AM             = 3
    Spherical Harmonics    = FALSE

  -Contraction Scheme:
    Atom   Type   All Primitives // Shells:
   ------ ------ --------------------------
       1     C     11s 8p 6d 3f // 11s 8p 6d 3f 
       2     C     11s 8p 6d 3f // 11s 8p 6d 3f 
       3     C     11s 8p 6d 3f // 11s 8p 6d 3f 
       4     H     4s 3p 2d // 4s 3p 2d 
       5     H     4s 3p 2d // 4s 3p 2d 
       6     C     11s 8p 6d 3f // 11s 8p 6d 3f 
       7     H     4s 3p 2d // 4s 3p 2d 
       8     H     4s 3p 2d // 4s 3p 2d 
       9     H     4s 3p 2d // 4s 3p 2d 
      10     H     4s 3p 2d // 4s 3p 2d 
      11     H     4s 3p 2d // 4s 3p 2d 
      12     H     4s 3p 2d // 4s 3p 2d 
      13     H     4s 3p 2d // 4s 3p 2d 
      14     H     4s 3p 2d // 4s 3p 2d 

  Minimum eigenvalue in the overlap matrix is 1.0676789923E-04.
  Reciprocal condition number of the overlap matrix is 1.2816610808E-05.
    Using symmetric orthogonalization.

  ==> Pre-Iterations <==

  SCF Guess: Orbitals guess was supplied from a previous computation.

   -------------------------------------------------------
    Irrep   Nso     Nmo     Nalpha   Nbeta   Ndocc  Nsocc
   -------------------------------------------------------
     Ag        34      34       7       7       7       0
     Bg        14      14       2       2       2       0
     Au        14      14       2       2       2       0
     Bu        34      34       6       6       6       0
   -------------------------------------------------------
    Total      96      96      17      17      17       0
   -------------------------------------------------------

  ==> Iterations <==

                           Total Energy        Delta E     RMS |[F,P]|

   @DF-RHF iter   0:  -157.30697610808681   -1.57307e+02   7.58165e-04 
   @DF-RHF iter   1:  -157.29973149675746    7.24461e-03   7.89695e-05 DIIS
   @DF-RHF iter   2:  -157.29974351930446   -1.20225e-05   2.56250e-05 DIIS
   @DF-RHF iter   3:  -157.29974465958969   -1.14029e-06   9.35935e-06 DIIS
   @DF-RHF iter   4:  -157.29974484174508   -1.82155e-07   1.33943e-06 DIIS
   @DF-RHF iter   5:  -157.29974484691772   -5.17264e-09   2.24847e-07 DIIS
   @DF-RHF iter   6:  -157.29974484711869   -2.00970e-10   3.31072e-08 DIIS
   @DF-RHF iter   7:  -157.29974484712218   -3.49587e-12   8.52639e-09 DIIS

  DF guess converged.

  ==> DirectJK: Integral-Direct J/K Matrices <==

    J tasked:                  Yes
    K tasked:                  Yes
    wK tasked:                  No
    Integrals threads:           4
    Screening Type:           CSAM
    Screening Cutoff:        1E-08
    Incremental Fock:           No

   @RHF iter   8:  -157.29975179357726   -1.57300e+02   6.15011e-06 DIIS
   @RHF iter   9:  -157.29975184240405   -4.88268e-08   1.17320e-06 DIIS
   @RHF iter  10:  -157.29975184477894   -2.37489e-09   1.59265e-07 DIIS
   @RHF iter  11:  -157.29975184483482   -5.58771e-11   6.03616e-08 DIIS
   @RHF iter  12:  -157.29975184484209   -7.27596e-12   8.39713e-09 DIIS
  Energy and wave function converged.


  ==> Post-Iterations <==

    Orbital Energies [Eh]
    ---------------------

    Doubly Occupied:                                                      

       1Ag   -11.216038     1Bu   -11.215443     2Ag   -11.209570  
       2Bu   -11.209569     3Ag    -1.072112     3Bu    -0.982959  
       4Ag    -0.864414     4Bu    -0.791469     1Au    -0.641395  
       5Ag    -0.586599     5Bu    -0.575930     1Bg    -0.570851  
       6Bu    -0.516991     2Au    -0.498780     6Ag    -0.469806  
       2Bg    -0.464817     7Ag    -0.457596  

    Virtual:                                                              

       7Bu     0.087461     8Ag     0.092188     8Bu     0.100255  
       3Au     0.112959     9Ag     0.118419    10Ag     0.132425  
       3Bg     0.138850     4Bg     0.150451     9Bu     0.157991  
      11Ag     0.163737    10Bu     0.172984     4Au     0.179269  
      11Bu     0.211357    12Ag     0.226992    13Ag     0.242552  
      12Bu     0.272196     5Au     0.341326    13Bu     0.360691  
       5Bg     0.369117     6Au     0.372227    14Ag     0.374487  
      14Bu     0.427453     6Bg     0.428358    15Ag     0.449932  
      15Bu     0.453925    16Ag     0.468232    16Bu     0.497667  
      17Ag     0.500719    17Bu     0.516594    18Ag     0.821356  
      18Bu     0.830661     7Au     0.852900    19Ag     0.861707  
       7Bg     0.878896    19Bu     0.933683     8Au     0.949500  
      20Ag     0.967163    20Bu     0.997161    21Bu     1.067249  
       8Bg     1.069026    21Ag     1.115705     9Au     1.185997  
      22Ag     1.227847     9Bg     1.230517    10Au     1.248299  
      22Bu     1.269717    23Ag     1.276959    10Bg     1.356799  
      23Bu     1.374890    24Ag     1.387785    24Bu     1.409169  
      25Ag     1.410030    25Bu     1.629462    11Au     1.710894  
      26Ag     1.718483    26Bu     1.753662    27Ag     1.926283  
      27Bu     1.944131    11Bg     2.143472    28Bu     2.227321  
      28Ag     2.239421    12Au     2.284603    29Ag     2.317893  
      29Bu     2.358655    12Bg     2.401105    30Ag     2.523945  
      13Bg     2.608384    13Au     2.645254    30Bu     2.669590  
      31Ag     2.766558    14Bg     2.768254    14Au     2.777141  
      31Bu     2.947622    32Ag     3.059859    32Bu     3.123438  
      33Ag     4.617093    33Bu     4.729079    34Ag     4.816536  
      34Bu     4.969624  

    Final Occupation by Irrep:
             Ag    Bg    Au    Bu 
    DOCC [     7,    2,    2,    6 ]
    NA   [     7,    2,    2,    6 ]
    NB   [     7,    2,    2,    6 ]

  @RHF Final Energy:  -157.29975184484209

   => Energetics <=

    Nuclear Repulsion Energy =            130.8565171265107381
    One-Electron Energy =                -469.6238573092630872
    Two-Electron Energy =                 181.4675883379102856
    Total Energy =                       -157.2997518448420919

Computation Completed


Properties will be evaluated at   0.000000,   0.000000,   0.000000 [a0]

Properties computed using the SCF density matrix


 Multipole Moments:

 ------------------------------------------------------------------------------------
     Multipole            Electronic (a.u.)      Nuclear  (a.u.)        Total (a.u.)
 ------------------------------------------------------------------------------------

 L = 1.  Multiply by 2.5417464519 to convert [e a0] to [Debye]
 Dipole X            :          0.0000000           -0.0000000           -0.0000000
 Dipole Y            :          0.0000000            0.0000000            0.0000000
 Dipole Z            :          0.0000000            0.0000000            0.0000000
 Magnitude           :                                                    0.0000000

 ------------------------------------------------------------------------------------

*** tstop() called on Barrys-MacBook-Pro.local at Tue May  7 20:59:54 2024
Module time:
	user time   =       7.83 seconds =       0.13 minutes
	system time =       0.12 seconds =       0.00 minutes
	total time  =          2 seconds =       0.03 minutes
Total time:
	user time   =      45.19 seconds =       0.75 minutes
	system time =       0.97 seconds =       0.02 minutes
	total time  =       1001 seconds =      16.68 minutes

*** tstart() called on Barrys-MacBook-Pro.local
*** at Tue May  7 20:59:54 2024


         ------------------------------------------------------------
                                   SCF GRAD                          
                          Rob Parrish, Justin Turney,                
                       Andy Simmonett, and Alex Sokolov              
         ------------------------------------------------------------

  ==> Geometry <==

    Molecular point group: c2h
    Full point group: C2h

    Geometry (in Angstrom), charge = 0, multiplicity = 1:

       Center              X                  Y                   Z               Mass       
    ------------   -----------------  -----------------  -----------------  -----------------
         C            0.000000000000     0.764672744881     0.000000000000    12.000000000000
         C            0.000000000000    -0.764672744881     0.000000000000    12.000000000000
         C           -1.408586370644     1.360971403501     0.000000000000    12.000000000000
         H            0.543404704245     1.122024134041     0.871655766009     1.007825032230
         H            0.543404704245     1.122024134041    -0.871655766009     1.007825032230
         C            1.408586370644    -1.360971403501     0.000000000000    12.000000000000
         H           -0.543404704245    -1.122024134041     0.871655766009     1.007825032230
         H           -0.543404704245    -1.122024134041    -0.871655766009     1.007825032230
         H           -1.376213499714     2.446309489824     0.000000000000     1.007825032230
         H           -1.965061493733     1.044796054211    -0.877627321577     1.007825032230
         H           -1.965061493733     1.044796054211     0.877627321577     1.007825032230
         H            1.376213499714    -2.446309489824     0.000000000000     1.007825032230
         H            1.965061493733    -1.044796054211    -0.877627321577     1.007825032230
         H            1.965061493733    -1.044796054211     0.877627321577     1.007825032230

  Nuclear repulsion =  130.856517126510738

  ==> Basis Set <==

  -AO BASIS SET INFORMATION:
    Name                   = 6-31+G*
    Blend                  = 6-31+G*
    Total number of shells = 52
    Number of primitives   = 108
    Number of AO           = 96
    Number of SO           = 96
    Maximum AM             = 2
    Spherical Harmonics    = FALSE

  -Contraction Scheme:
    Atom   Type   All Primitives // Shells:
   ------ ------ --------------------------
       1     C     11s 5p 1d // 4s 3p 1d 
       2     C     11s 5p 1d // 4s 3p 1d 
       3     C     11s 5p 1d // 4s 3p 1d 
       4     H     4s // 2s 
       5     H     4s // 2s 
       6     C     11s 5p 1d // 4s 3p 1d 
       7     H     4s // 2s 
       8     H     4s // 2s 
       9     H     4s // 2s 
      10     H     4s // 2s 
      11     H     4s // 2s 
      12     H     4s // 2s 
      13     H     4s // 2s 
      14     H     4s // 2s 

  ==> DirectJKGrad: Integral-Direct SCF Gradients <==

    Gradient:                    1
    J tasked:                  Yes
    K tasked:                  Yes
    wK tasked:                  No
    Integrals threads:           4
    Schwarz Cutoff:          1E-08


  -Nuclear Gradient:
     Atom            X                  Y                   Z
    ------   -----------------  -----------------  -----------------
       1       -2.396093736744    -3.661437051150     0.000000000000
       2        2.396093736744     3.661437051150     0.000000000000
       3        4.869598690763    -3.473627874678    -0.000000000000
       4       -1.156990390003    -1.056819699669    -1.665102728274
       5       -1.156990390003    -1.056819699669     1.665102728274
       6       -4.869598690763     3.473627874678     0.000000000000
       7        1.156990390003     1.056819699669    -1.665102728274
       8        1.156990390003     1.056819699669     1.665102728274
       9        0.319253623095    -2.142130966438     0.000000000000
      10        1.441436910822     0.178251361113     1.556799921483
      11        1.441436910822     0.178251361113    -1.556799921483
      12       -0.319253623095     2.142130966438     0.000000000000
      13       -1.441436910822    -0.178251361113     1.556799921483
      14       -1.441436910822    -0.178251361113    -1.556799921483


  -Core Hamiltonian Gradient:
     Atom            X                  Y                   Z
    ------   -----------------  -----------------  -----------------
       1        2.505031542712     6.096844560115    -0.000000000000
       2       -2.505031542712    -6.096844560115     0.000000000000
       3       -7.535639265155     5.865474167595    -0.000000000000
       4        2.888372137446     2.427552878305     4.275010120142
       5        2.888372137446     2.427552878305    -4.275010120142
       6        7.535639265155    -5.865474167595     0.000000000000
       7       -2.888372137446    -2.427552878305     4.275010120142
       8       -2.888372137446    -2.427552878305    -4.275010120142
       9       -0.536291392532     5.291311828891     0.000000000000
      10       -3.365018571884    -0.764978671045    -3.995483189060
      11       -3.365018571884    -0.764978671045     3.995483189060
      12        0.536291392532    -5.291311828890    -0.000000000000
      13        3.365018571884     0.764978671045    -3.995483189060
      14        3.365018571884     0.764978671045     3.995483189060


  -Overlap Gradient:
     Atom            X                  Y                   Z
    ------   -----------------  -----------------  -----------------
       1        0.099714518465     0.037512660204    -0.000000000000
       2       -0.099714518465    -0.037512660204     0.000000000000
       3       -0.115277882049     0.074564846392    -0.000000000000
       4       -0.087056112721    -0.057701059636    -0.138885152905
       5       -0.087056112721    -0.057701059636     0.138885152905
       6        0.115277882049    -0.074564846392     0.000000000000
       7        0.087056112721     0.057701059636    -0.138885152905
       8        0.087056112721     0.057701059636     0.138885152905
       9       -0.004996501808    -0.177569528904    -0.000000000000
      10        0.091054474456     0.051361768615     0.140357762211
      11        0.091054474456     0.051361768615    -0.140357762211
      12        0.004996501808     0.177569528904    -0.000000000000
      13       -0.091054474456    -0.051361768615     0.140357762211
      14       -0.091054474456    -0.051361768615    -0.140357762211


  -Coulomb Gradient:
     Atom            X                  Y                   Z
    ------   -----------------  -----------------  -----------------
       1       -0.045128008330    -2.390685933995     0.000000000000
       2        0.045128008330     2.390685933995    -0.000000000000
       3        2.605398951635    -2.372069098161     0.000000000000
       4       -1.786593967372    -1.407017620720    -2.696011679440
       5       -1.786593967372    -1.407017620720     2.696011679440
       6       -2.605398951635     2.372069098161    -0.000000000000
       7        1.786593967372     1.407017620720    -2.696011679440
       8        1.786593967372     1.407017620720     2.696011679440
       9        0.215041512217    -3.260149418176    -0.000000000000
      10        1.980881000349     0.618398825544     2.527255252161
      11        1.980881000349     0.618398825544    -2.527255252161
      12       -0.215041512217     3.260149418176    -0.000000000000
      13       -1.980881000349    -0.618398825544     2.527255252161
      14       -1.980881000349    -0.618398825544    -2.527255252161


  -Exchange Gradient:
     Atom            X                  Y                   Z
    ------   -----------------  -----------------  -----------------
       1       -0.161948487112    -0.081749245845     0.000000000000
       2        0.161948487112     0.081749245845    -0.000000000000
       3        0.174261388357    -0.094008518430     0.000000000000
       4        0.141784575344     0.093485120767     0.224825405877
       5        0.141784575344     0.093485120767    -0.224825405877
       6       -0.174261388357     0.094008518430     0.000000000000
       7       -0.141784575344    -0.093485120767     0.224825405877
       8       -0.141784575344    -0.093485120767    -0.224825405877
       9        0.007253188785     0.288428439429     0.000000000000
      10       -0.147867829389    -0.083129487977    -0.228795500606
      11       -0.147867829389    -0.083129487977     0.228795500606
      12       -0.007253188785    -0.288428439429     0.000000000000
      13        0.147867829389     0.083129487977    -0.228795500606
      14        0.147867829389     0.083129487977     0.228795500606


  -Total Gradient:
     Atom            X                  Y                   Z
    ------   -----------------  -----------------  -----------------
       1        0.001575828990     0.000484989328     0.000000000000
       2       -0.001575828990    -0.000484989328     0.000000000000
       3       -0.001658116448     0.000333522718     0.000000000000
       4       -0.000483757306    -0.000500380953    -0.000164034600
       5       -0.000483757306    -0.000500380953     0.000164034600
       6        0.001658116448    -0.000333522718     0.000000000000
       7        0.000483757306     0.000500380953    -0.000164034600
       8        0.000483757306     0.000500380953     0.000164034600
       9        0.000260429757    -0.000109645199     0.000000000000
      10        0.000485984355    -0.000096203751     0.000134246189
      11        0.000485984355    -0.000096203751    -0.000134246189
      12       -0.000260429757     0.000109645199     0.000000000000
      13       -0.000485984355     0.000096203751     0.000134246189
      14       -0.000485984355     0.000096203751    -0.000134246189


*** tstop() called on Barrys-MacBook-Pro.local at Tue May  7 20:59:55 2024
Module time:
	user time   =       3.07 seconds =       0.05 minutes
	system time =       0.03 seconds =       0.00 minutes
	total time  =          1 seconds =       0.02 minutes
Total time:
	user time   =      48.27 seconds =       0.80 minutes
	system time =       1.00 seconds =       0.02 minutes
	total time  =       1002 seconds =      16.70 minutes

    			-----------------------------------------

    			 OPTKING 3.0: for geometry optimizations 

    			     By R.A. King, Bethel University     

    			        with contributions from          

    			    A.V. Copan, J. Cayton, A. Heide      

    			-----------------------------------------

    
	                            ===> Fragment 1 <== 

	 Z (Atomic Numbers)          Masses                          Geom                  
	       6.000000            12.000000          0.00000000  1.44502206  0.00000000   
	       6.000000            12.000000          0.00000000 -1.44502206  0.00000000   
	       6.000000            12.000000         -2.66184246  2.57186322  0.00000000   
	       1.000000             1.007825          1.02688607  2.12031832  1.64719067   
	       1.000000             1.007825          1.02688607  2.12031832 -1.64719067   
	       6.000000            12.000000          2.66184246 -2.57186322  0.00000000   
	       1.000000             1.007825         -1.02688607 -2.12031832  1.64719067   
	       1.000000             1.007825         -1.02688607 -2.12031832 -1.64719067   
	       1.000000             1.007825         -2.60066660  4.62285495  0.00000000   
	       1.000000             1.007825         -3.71342804  1.97437840 -1.65847528   
	       1.000000             1.007825         -3.71342804  1.97437840  1.65847528   
	       1.000000             1.007825          2.60066660 -4.62285495  0.00000000   
	       1.000000             1.007825          3.71342804 -1.97437840 -1.65847528   
	       1.000000             1.007825          3.71342804 -1.97437840  1.65847528   

	 - Coordinate -           - BOHR/RAD -       - ANG/DEG -
	 R(1,2)           =         2.890044           1.529345
	 R(1,3)           =         2.890532           1.529604
	 R(1,4)           =         2.055178           1.087553
	 R(1,5)           =         2.055178           1.087553
	 R(2,6)           =         2.890532           1.529604
	 R(2,7)           =         2.055178           1.087553
	 R(2,8)           =         2.055178           1.087553
	 R(3,9)           =         2.051904           1.085821
	 R(3,10)          =         2.052647           1.086214
	 R(3,11)          =         2.052647           1.086214
	 R(6,12)          =         2.051904           1.085821
	 R(6,13)          =         2.052647           1.086214
	 R(6,14)          =         2.052647           1.086214
	 B(1,2,6)         =         1.971253         112.944460
	 B(1,2,7)         =         1.905599         109.182782
	 B(1,2,8)         =         1.905599         109.182782
	 B(1,3,9)         =         1.941434         111.235979
	 B(1,3,10)        =         1.937243         110.995869
	 B(1,3,11)        =         1.937243         110.995869
	 B(2,1,3)         =         1.971253         112.944460
	 B(2,1,4)         =         1.905599         109.182782
	 B(2,1,5)         =         1.905599         109.182782
	 B(2,6,12)        =         1.941434         111.235979
	 B(2,6,13)        =         1.937243         110.995869
	 B(2,6,14)        =         1.937243         110.995869
	 B(3,1,4)         =         1.909254         109.392175
	 B(3,1,5)         =         1.909254         109.392175
	 B(4,1,5)         =         1.859543         106.543937
	 B(6,2,7)         =         1.909254         109.392175
	 B(6,2,8)         =         1.909254         109.392175
	 B(7,2,8)         =         1.859543         106.543937
	 B(9,3,10)        =         1.882021         107.831863
	 B(9,3,11)        =         1.882021         107.831863
	 B(10,3,11)       =         1.881394         107.795935
	 B(12,6,13)       =         1.882021         107.831863
	 B(12,6,14)       =         1.882021         107.831863
	 B(13,6,14)       =         1.881394         107.795935
	 D(1,2,6,12)      =         3.141593         180.000000
	 D(1,2,6,13)      =        -1.046004         -59.931611
	 D(1,2,6,14)      =         1.046004          59.931611
	 D(2,1,3,9)       =         3.141593         180.000000
	 D(2,1,3,10)      =        -1.046004         -59.931611
	 D(2,1,3,11)      =         1.046004          59.931611
	 D(3,1,2,6)       =         3.141593         180.000000
	 D(3,1,2,7)       =        -1.013336         -58.059900
	 D(3,1,2,8)       =         1.013336          58.059900
	 D(4,1,2,6)       =        -1.013336         -58.059900
	 D(4,1,2,7)       =         1.114920          63.880200
	 D(4,1,2,8)       =         3.141593         180.000000
	 D(4,1,3,9)       =         1.015393          58.177711
	 D(4,1,3,10)      =         3.110981         178.246100
	 D(4,1,3,11)      =        -1.080196         -61.890679
	 D(5,1,2,6)       =         1.013336          58.059900
	 D(5,1,2,7)       =         3.141593         180.000000
	 D(5,1,2,8)       =        -1.114920         -63.880200
	 D(5,1,3,9)       =        -1.015393         -58.177711
	 D(5,1,3,10)      =         1.080196          61.890679
	 D(5,1,3,11)      =        -3.110981        -178.246100
	 D(7,2,6,12)      =         1.015393          58.177711
	 D(7,2,6,13)      =         3.110981         178.246100
	 D(7,2,6,14)      =        -1.080196         -61.890679
	 D(8,2,6,12)      =        -1.015393         -58.177711
	 D(8,2,6,13)      =         1.080196          61.890679
	 D(8,2,6,14)      =        -3.110981        -178.246100


	        --- Internal Coordinate Step in ANG or DEG, aJ/ANG or AJ/DEG ---
	-------------------------------------------------------------------------------
	           Coordinate      Previous         Force          Change          New 
	           ----------      --------        ------          ------        ------
	               R(1,2)       1.52935        0.00399        0.00034       1.52969
	               R(1,3)       1.52960       -0.00333       -0.00129       1.52832
	               R(1,4)       1.08755        0.00443        0.00084       1.08839
	               R(1,5)       1.08755        0.00443        0.00084       1.08839
	               R(2,6)       1.52960       -0.00333       -0.00129       1.52832
	               R(2,7)       1.08755        0.00443        0.00084       1.08839
	               R(2,8)       1.08755        0.00443        0.00084       1.08839
	               R(3,9)       1.08582        0.00084        0.00016       1.08598
	              R(3,10)       1.08621        0.00271        0.00054       1.08676
	              R(3,11)       1.08621        0.00271        0.00054       1.08676
	              R(6,12)       1.08582        0.00084        0.00016       1.08598
	              R(6,13)       1.08621        0.00271        0.00054       1.08676
	              R(6,14)       1.08621        0.00271        0.00054       1.08676
	             B(1,2,6)     112.94446        0.00002        0.15195     113.09641
	             B(1,2,7)     109.18278        0.00001        0.10131     109.28409
	             B(1,2,8)     109.18278        0.00001        0.10131     109.28409
	             B(1,3,9)     111.23598        0.00001        0.09408     111.33006
	            B(1,3,10)     110.99587        0.00003        0.17139     111.16726
	            B(1,3,11)     110.99587        0.00003        0.17139     111.16726
	             B(2,1,3)     112.94446        0.00002        0.15195     113.09641
	             B(2,1,4)     109.18278        0.00001        0.10131     109.28409
	             B(2,1,5)     109.18278        0.00001        0.10131     109.28409
	            B(2,6,12)     111.23598        0.00001        0.09408     111.33006
	            B(2,6,13)     110.99587        0.00003        0.17139     111.16726
	            B(2,6,14)     110.99587        0.00003        0.17139     111.16726
	             B(3,1,4)     109.39217       -0.00001       -0.02826     109.36391
	             B(3,1,5)     109.39217       -0.00001       -0.02826     109.36391
	             B(4,1,5)     106.54394       -0.00002       -0.32761     106.21633
	             B(6,2,7)     109.39217       -0.00001       -0.02826     109.36391
	             B(6,2,8)     109.39217       -0.00001       -0.02826     109.36391
	             B(7,2,8)     106.54394       -0.00002       -0.32761     106.21633
	            B(9,3,10)     107.83186       -0.00003       -0.14849     107.68338
	            B(9,3,11)     107.83186       -0.00003       -0.14849     107.68338
	           B(10,3,11)     107.79593       -0.00003       -0.16598     107.62995
	           B(12,6,13)     107.83186       -0.00003       -0.14849     107.68338
	           B(12,6,14)     107.83186       -0.00003       -0.14849     107.68338
	           B(13,6,14)     107.79593       -0.00003       -0.16598     107.62995
	          D(1,2,6,12)     180.00000        0.00000        0.00000     180.00000
	          D(1,2,6,13)     -59.93161       -0.00000       -0.00943     -59.94104
	          D(1,2,6,14)      59.93161        0.00000        0.00943      59.94104
	           D(2,1,3,9)     180.00000       -0.00000        0.00000     180.00000
	          D(2,1,3,10)     -59.93161       -0.00000       -0.00943     -59.94104
	          D(2,1,3,11)      59.93161        0.00000        0.00943      59.94104
	           D(3,1,2,6)     180.00000        0.00000        0.00000     180.00000
	           D(3,1,2,7)     -58.05990        0.00001        0.13956     -57.92034
	           D(3,1,2,8)      58.05990       -0.00001       -0.13956      57.92034
	           D(4,1,2,6)     -58.05990        0.00001        0.13956     -57.92034
	           D(4,1,2,7)      63.88020        0.00001        0.27912      64.15932
	           D(4,1,2,8)     180.00000       -0.00000        0.00000     180.00000
	           D(4,1,3,9)      58.17771       -0.00001       -0.21267      57.96504
	          D(4,1,3,10)     178.24610       -0.00001       -0.22210     178.02400
	          D(4,1,3,11)     -61.89068       -0.00001       -0.20325     -62.09393
	           D(5,1,2,6)      58.05990       -0.00001       -0.13956      57.92034
	           D(5,1,2,7)     180.00000        0.00000        0.00000     180.00000
	           D(5,1,2,8)     -63.88020       -0.00001       -0.27912     -64.15932
	           D(5,1,3,9)     -58.17771        0.00001        0.21267     -57.96504
	          D(5,1,3,10)      61.89068        0.00001        0.20325      62.09393
	          D(5,1,3,11)    -178.24610        0.00001        0.22210    -178.02400
	          D(7,2,6,12)      58.17771       -0.00001       -0.21267      57.96504
	          D(7,2,6,13)     178.24610       -0.00001       -0.22210     178.02400
	          D(7,2,6,14)     -61.89068       -0.00001       -0.20325     -62.09393
	          D(8,2,6,12)     -58.17771        0.00001        0.21267     -57.96504
	          D(8,2,6,13)      61.89068        0.00001        0.20325      62.09393
	          D(8,2,6,14)    -178.24610        0.00001        0.22210    -178.02400
	-------------------------------------------------------------------------------

	                                 ==> Convergence Check <==                                  
    
	Measures of convergence in internal coordinates in au.
    
	Criteria marked as inactive (o), active & met (*), and active & unmet ( ).

	----------------------------------------------------------------------------------------------
	   Step    Total Energy     Delta E     Max Force     RMS Force      Max Disp      RMS Disp   
	----------------------------------------------------------------------------------------------
	  Convergence Criteria     1.00e-06 *    3.00e-04 *             o    1.20e-03 *             o
	----------------------------------------------------------------------------------------------
	     2    -157.29975184   -3.81e-04      5.38e-04      2.62e-04 o    5.72e-03      2.63e-03 o  ~
	----------------------------------------------------------------------------------------------

Next Geometry in Ang 
	Fragment 1 (Ang)

	    C  -0.0014926484   0.7648411728   0.0000000000
	    C   0.0014926484  -0.7648411728   0.0000000000
	    C  -1.4084758427   1.3616236672   0.0000000000
	    H   0.5434138694   1.1253485324   0.8704616842
	    H   0.5434138694   1.1253485324  -0.8704616842
	    C   1.4084758427  -1.3616236672  -0.0000000000
	    H  -0.5434138694  -1.1253485324   0.8704616842
	    H  -0.5434138694  -1.1253485324  -0.8704616842
	    H  -1.3771201945   2.4471510151  -0.0000000000
	    H  -1.9679568727   1.0475376221  -0.8771359009
	    H  -1.9679568727   1.0475376221   0.8771359009
	    H   1.3771201945  -2.4471510151  -0.0000000000
	    H   1.9679568727  -1.0475376221  -0.8771359009
	    H   1.9679568727  -1.0475376221   0.8771359009


    Structure for next step:
    Molecular point group: c2h
    Full point group: C2h

    Geometry (in Angstrom), charge = 0, multiplicity = 1:

    C       
    C             1    1.529685
    C             1    1.528316      2  113.096411
    H             1    1.088390      2  109.284092      3  122.079659
    H             1    1.088390      2  109.284092      3 -122.079659
    C             2    1.528316      1  113.096411      3 -180.000000
    H             2    1.088390      1  109.284092      6  122.079659
    H             2    1.088390      1  109.284092      6 -122.079659
    H             3    1.085980      1  111.330055      2 -180.000000
    H             3    1.086755      1  111.167262      9  120.058962
    H             3    1.086755      1  111.167262      9 -120.058962
    H             6    1.085980      2  111.330055      1 -180.000000
    H             6    1.086755      2  111.167262     12  120.058962
    H             6    1.086755      2  111.167262     12 -120.058962


Scratch directory: /tmp/
gradient() will perform analytic gradient computation.
   => Libint2 <=

    Primary   basis highest AM E, G, H:  5, 4, 3
    Auxiliary basis highest AM E, G, H:  6, 5, 4
    Onebody   basis highest AM E, G, H:  6, 5, 4
    Solid Harmonics ordering:            Gaussian

*** tstart() called on Barrys-MacBook-Pro.local
*** at Tue May  7 20:59:55 2024

   => Loading Basis Set <=

    Name: 6-31+G*
    Role: ORBITAL
    Keyword: BASIS
    atoms 1-3, 6    entry C          line   119 file /Users/blink/psi4conda/share/psi4/basis/6-31pgs.gbs 
    atoms 4-5, 7-14 entry H          line    46 file /Users/blink/psi4conda/share/psi4/basis/6-31pgs.gbs 


         ---------------------------------------------------------
                                   SCF
               by Justin Turney, Rob Parrish, Andy Simmonett
                          and Daniel G. A. Smith
                              RHF Reference
                        4 Threads,   3814 MiB Core
         ---------------------------------------------------------

  ==> Geometry <==

    Molecular point group: c2h
    Full point group: C2h

    Geometry (in Angstrom), charge = 0, multiplicity = 1:

       Center              X                  Y                   Z               Mass       
    ------------   -----------------  -----------------  -----------------  -----------------
         C            0.000000000000     0.764842629271     0.000000000000    12.000000000000
         C            0.000000000000    -0.764842629271     0.000000000000    12.000000000000
         C           -1.405815848551     1.364369821729     0.000000000000    12.000000000000
         H            0.545609037640     1.124285875922     0.870461684162     1.007825032230
         H            0.545609037640     1.124285875922    -0.870461684162     1.007825032230
         C            1.405815848551    -1.364369821729     0.000000000000    12.000000000000
         H           -0.545609037640    -1.124285875922     0.870461684162     1.007825032230
         H           -0.545609037640    -1.124285875922    -0.870461684162     1.007825032230
         H           -1.372341771017     2.449833909522     0.000000000000     1.007825032230
         H           -1.965908775836     1.051376244480    -0.877135900871     1.007825032230
         H           -1.965908775836     1.051376244480     0.877135900871     1.007825032230
         H            1.372341771017    -2.449833909522     0.000000000000     1.007825032230
         H            1.965908775836    -1.051376244480    -0.877135900871     1.007825032230
         H            1.965908775836    -1.051376244480     0.877135900871     1.007825032230

  Running in c2h symmetry.

  Rotational constants: A =      0.78963  B =      0.12099  C =      0.11362 [cm^-1]
  Rotational constants: A =  23672.56589  B =   3627.04548  C =   3406.14244 [MHz]
  Nuclear repulsion =  130.819481925896611

  Charge       = 0
  Multiplicity = 1
  Electrons    = 34
  Nalpha       = 17
  Nbeta        = 17

  ==> Algorithm <==

  SCF Algorithm Type is DIRECT.
  DIIS enabled.
  MOM disabled.
  Fractional occupation disabled.
  Guess Type is READ.
  Energy threshold   = 1.00e-08
  Density threshold  = 1.00e-08
  Integral threshold = 1.00e-08

  ==> Primary Basis <==

  -AO BASIS SET INFORMATION:
    Name                   = 6-31+G*
    Blend                  = 6-31+G*
    Total number of shells = 52
    Number of primitives   = 108
    Number of AO           = 96
    Number of SO           = 96
    Maximum AM             = 2
    Spherical Harmonics    = FALSE

  -Contraction Scheme:
    Atom   Type   All Primitives // Shells:
   ------ ------ --------------------------
       1     C     11s 5p 1d // 4s 3p 1d 
       2     C     11s 5p 1d // 4s 3p 1d 
       3     C     11s 5p 1d // 4s 3p 1d 
       4     H     4s // 2s 
       5     H     4s // 2s 
       6     C     11s 5p 1d // 4s 3p 1d 
       7     H     4s // 2s 
       8     H     4s // 2s 
       9     H     4s // 2s 
      10     H     4s // 2s 
      11     H     4s // 2s 
      12     H     4s // 2s 
      13     H     4s // 2s 
      14     H     4s // 2s 

   => Loading Basis Set <=

    Name: (6-31+G* AUX)
    Role: JKFIT
    Keyword: DF_BASIS_SCF
    atoms 1-3, 6    entry C          line   194 file /Users/blink/psi4conda/share/psi4/basis/heavy-aug-cc-pvdz-jkfit.gbs 
[...]
       9       -0.538681557437     5.289731918539     0.000000000000
      10       -3.381224466940    -0.743974590799    -3.983835258578
      11       -3.381224466940    -0.743974590799     3.983835258578
      12        0.538681557437    -5.289731918539     0.000000000000
      13        3.381224466940     0.743974590799    -3.983835258578
      14        3.381224466940     0.743974590799     3.983835258578


  -Overlap Gradient:
     Atom            X                  Y                   Z
    ------   -----------------  -----------------  -----------------
       1        0.101470382850     0.039567398908    -0.000000000000
       2       -0.101470382850    -0.039567398908     0.000000000000
       3       -0.117213902395     0.075299838574    -0.000000000000
       4       -0.087523873439    -0.058407946821    -0.137975027882
       5       -0.087523873439    -0.058407946821     0.137975027882
       6        0.117213902395    -0.075299838574     0.000000000000
       7        0.087523873439     0.058407946821    -0.137975027882
       8        0.087523873439     0.058407946821     0.137975027882
       9       -0.004747651772    -0.177426414235     0.000000000000
      10        0.091856677475     0.050508830885     0.139906093613
      11        0.091856677475     0.050508830885    -0.139906093613
      12        0.004747651772     0.177426414235     0.000000000000
      13       -0.091856677475    -0.050508830885     0.139906093613
      14       -0.091856677475    -0.050508830885    -0.139906093613


  -Coulomb Gradient:
     Atom            X                  Y                   Z
    ------   -----------------  -----------------  -----------------
       1       -0.009745073553    -2.347474397574    -0.000000000000
       2        0.009745073553     2.347474397575    -0.000000000000
       3        2.559664889017    -2.368221709628     0.000000000000
       4       -1.798378330076    -1.421613177595    -2.677156248483
       5       -1.798378330076    -1.421613177595     2.677156248483
       6       -2.559664889017     2.368221709628     0.000000000000
       7        1.798378330076     1.421613177595    -2.677156248483
       8        1.798378330076     1.421613177595     2.677156248483
       9        0.220523617723    -3.258427452200    -0.000000000000
      10        1.995165644320     0.602664420370     2.518372587686
      11        1.995165644320     0.602664420370    -2.518372587686
      12       -0.220523617723     3.258427452200    -0.000000000000
      13       -1.995165644320    -0.602664420370     2.518372587686
      14       -1.995165644320    -0.602664420370    -2.518372587686


  -Exchange Gradient:
     Atom            X                  Y                   Z
    ------   -----------------  -----------------  -----------------
       1       -0.164575081008    -0.084491729373    -0.000000000000
       2        0.164575081008     0.084491729373    -0.000000000000
       3        0.177518916394    -0.095376120071     0.000000000000
       4        0.142605831449     0.094651045180     0.223423239649
       5        0.142605831449     0.094651045180    -0.223423239649
       6       -0.177518916394     0.095376120071     0.000000000000
       7       -0.142605831449    -0.094651045180     0.223423239649
       8       -0.142605831449    -0.094651045180    -0.223423239649
       9        0.006827541511     0.288244665066    -0.000000000000
      10       -0.149231334166    -0.081774197904    -0.228097495604
      11       -0.149231334166    -0.081774197904     0.228097495604
      12       -0.006827541511    -0.288244665066     0.000000000000
      13        0.149231334166     0.081774197904    -0.228097495604
      14        0.149231334166     0.081774197904     0.228097495604


  -Total Gradient:
     Atom            X                  Y                   Z
    ------   -----------------  -----------------  -----------------
       1        0.000022596392    -0.000047618186     0.000000000000
       2       -0.000022596392     0.000047618186     0.000000000000
       3        0.000071104241     0.000079366971     0.000000000000
       4       -0.000021019600     0.000062680400    -0.000059502722
       5       -0.000021019600     0.000062680400     0.000059502722
       6       -0.000071104241    -0.000079366971     0.000000000000
       7        0.000021019600    -0.000062680400    -0.000059502722
       8        0.000021019600    -0.000062680400     0.000059502722
       9       -0.000072633496    -0.000030523112     0.000000000000
      10        0.000015941052     0.000019354036     0.000012906117
      11        0.000015941052     0.000019354036    -0.000012906117
      12        0.000072633496     0.000030523112     0.000000000000
      13       -0.000015941052    -0.000019354036     0.000012906117
      14       -0.000015941052    -0.000019354036    -0.000012906117


*** tstop() called on Barrys-MacBook-Pro.local at Tue May  7 20:59:58 2024
Module time:
	user time   =       3.14 seconds =       0.05 minutes
	system time =       0.02 seconds =       0.00 minutes
	total time  =          1 seconds =       0.02 minutes
Total time:
	user time   =      59.71 seconds =       1.00 minutes
	system time =       1.14 seconds =       0.02 minutes
	total time  =       1005 seconds =      16.75 minutes

    			-----------------------------------------

    			 OPTKING 3.0: for geometry optimizations 

    			     By R.A. King, Bethel University     

    			        with contributions from          

    			    A.V. Copan, J. Cayton, A. Heide      

    			-----------------------------------------

    
	                            ===> Fragment 1 <== 

	 Z (Atomic Numbers)          Masses                          Geom                  
	       6.000000            12.000000          0.00000000  1.44534310  0.00000000   
	       6.000000            12.000000          0.00000000 -1.44534310  0.00000000   
	       6.000000            12.000000         -2.65660694  2.57828530  0.00000000   
	       1.000000             1.007825          1.03105165  2.12459239  1.64493419   
	       1.000000             1.007825          1.03105165  2.12459239 -1.64493419   
	       6.000000            12.000000          2.65660694 -2.57828530  0.00000000   
	       1.000000             1.007825         -1.03105165 -2.12459239  1.64493419   
	       1.000000             1.007825         -1.03105165 -2.12459239 -1.64493419   
	       1.000000             1.007825         -2.59335010  4.62951514  0.00000000   
	       1.000000             1.007825         -3.71502917  1.98681316 -1.65754663   
	       1.000000             1.007825         -3.71502917  1.98681316  1.65754663   
	       1.000000             1.007825          2.59335010 -4.62951514  0.00000000   
	       1.000000             1.007825          3.71502917 -1.98681316 -1.65754663   
	       1.000000             1.007825          3.71502917 -1.98681316  1.65754663   

	 - Coordinate -           - BOHR/RAD -       - ANG/DEG -
	 R(1,2)           =         2.890686           1.529685
	 R(1,3)           =         2.888099           1.528316
	 R(1,4)           =         2.056759           1.088390
	 R(1,5)           =         2.056759           1.088390
	 R(2,6)           =         2.888099           1.528316
	 R(2,7)           =         2.056759           1.088390
	 R(2,8)           =         2.056759           1.088390
	 R(3,9)           =         2.052205           1.085980
	 R(3,10)          =         2.053669           1.086755
	 R(3,11)          =         2.053669           1.086755
	 R(6,12)          =         2.052205           1.085980
	 R(6,13)          =         2.053669           1.086755
	 R(6,14)          =         2.053669           1.086755
	 B(1,2,6)         =         1.973905         113.096411
	 B(1,2,7)         =         1.907367         109.284092
	 B(1,2,8)         =         1.907367         109.284092
	 B(1,3,9)         =         1.943076         111.330055
	 B(1,3,10)        =         1.940235         111.167262
	 B(1,3,11)        =         1.940235         111.167262
	 B(2,1,3)         =         1.973905         113.096411
	 B(2,1,4)         =         1.907367         109.284092
	 B(2,1,5)         =         1.907367         109.284092
	 B(2,6,12)        =         1.943076         111.330055
	 B(2,6,13)        =         1.940235         111.167262
	 B(2,6,14)        =         1.940235         111.167262
	 B(3,1,4)         =         1.908760         109.363913
	 B(3,1,5)         =         1.908760         109.363913
	 B(4,1,5)         =         1.853825         106.216329
	 B(6,2,7)         =         1.908760         109.363913
	 B(6,2,8)         =         1.908760         109.363913
	 B(7,2,8)         =         1.853825         106.216329
	 B(9,3,10)        =         1.879429         107.683377
	 B(9,3,11)        =         1.879429         107.683377
	 B(10,3,11)       =         1.878497         107.629952
	 B(12,6,13)       =         1.879429         107.683377
	 B(12,6,14)       =         1.879429         107.683377
	 B(13,6,14)       =         1.878497         107.629952
	 D(1,2,6,12)      =         3.141593         180.000000
	 D(1,2,6,13)      =        -1.046168         -59.941038
	 D(1,2,6,14)      =         1.046168          59.941038
	 D(2,1,3,9)       =         3.141593         180.000000
	 D(2,1,3,10)      =        -1.046168         -59.941038
	 D(2,1,3,11)      =         1.046168          59.941038
	 D(3,1,2,6)       =         3.141593         180.000000
	 D(3,1,2,7)       =        -1.010901         -57.920341
	 D(3,1,2,8)       =         1.010901          57.920341
	 D(4,1,2,6)       =        -1.010901         -57.920341
	 D(4,1,2,7)       =         1.119791          64.159317
	 D(4,1,2,8)       =         3.141593         180.000000
	 D(4,1,3,9)       =         1.011681          57.965036
	 D(4,1,3,10)      =         3.107105         178.023998
	 D(4,1,3,11)      =        -1.083743         -62.093925
	 D(5,1,2,6)       =         1.010901          57.920341
	 D(5,1,2,7)       =         3.141593         180.000000
	 D(5,1,2,8)       =        -1.119791         -64.159317
	 D(5,1,3,9)       =        -1.011681         -57.965036
	 D(5,1,3,10)      =         1.083743          62.093925
	 D(5,1,3,11)      =        -3.107105        -178.023998
	 D(7,2,6,12)      =         1.011681          57.965036
	 D(7,2,6,13)      =         3.107105         178.023998
	 D(7,2,6,14)      =        -1.083743         -62.093925
	 D(8,2,6,12)      =        -1.011681         -57.965036
	 D(8,2,6,13)      =         1.083743          62.093925
	 D(8,2,6,14)      =        -3.107105        -178.023998


	        --- Internal Coordinate Step in ANG or DEG, aJ/ANG or AJ/DEG ---
	-------------------------------------------------------------------------------
	           Coordinate      Previous         Force          Change          New 
	           ----------      --------        ------          ------        ------
	               R(1,2)       1.52969       -0.00136       -0.00022       1.52946
	               R(1,3)       1.52832       -0.00005        0.00002       1.52834
	               R(1,4)       1.08839        0.00031        0.00007       1.08846
	               R(1,5)       1.08839        0.00031        0.00007       1.08846
	               R(2,6)       1.52832       -0.00005        0.00002       1.52834
	               R(2,7)       1.08839        0.00031        0.00007       1.08846
	               R(2,8)       1.08839        0.00031        0.00007       1.08846
	               R(3,9)       1.08598        0.00027        0.00005       1.08603
	              R(3,10)       1.08676        0.00020        0.00004       1.08680
	              R(3,11)       1.08676        0.00020        0.00004       1.08680
	              R(6,12)       1.08598        0.00027        0.00005       1.08603
	              R(6,13)       1.08676        0.00020        0.00004       1.08680
	              R(6,14)       1.08676        0.00020        0.00004       1.08680
	             B(1,2,6)     113.09641       -0.00000       -0.01512     113.08129
	             B(1,2,7)     109.28409       -0.00000       -0.02629     109.25780
	             B(1,2,8)     109.28409       -0.00000       -0.02629     109.25780
	             B(1,3,9)     111.33006       -0.00001       -0.03713     111.29293
	            B(1,3,10)     111.16726        0.00000        0.00709     111.17435
	            B(1,3,11)     111.16726        0.00000        0.00709     111.17435
	             B(2,1,3)     113.09641       -0.00000       -0.01512     113.08129
	             B(2,1,4)     109.28409       -0.00000       -0.02629     109.25780
	             B(2,1,5)     109.28409       -0.00000       -0.02629     109.25780
	            B(2,6,12)     111.33006       -0.00001       -0.03713     111.29293
	            B(2,6,13)     111.16726        0.00000        0.00709     111.17435
	            B(2,6,14)     111.16726        0.00000        0.00709     111.17435
	             B(3,1,4)     109.36391        0.00000        0.02135     109.38527
	             B(3,1,5)     109.36391        0.00000        0.02135     109.38527
	             B(4,1,5)     106.21633        0.00000        0.02765     106.24398
	             B(6,2,7)     109.36391        0.00000        0.02135     109.38527
	             B(6,2,8)     109.36391        0.00000        0.02135     109.38527
	             B(7,2,8)     106.21633        0.00000        0.02765     106.24398
	            B(9,3,10)     107.68338        0.00000        0.01231     107.69569
	            B(9,3,11)     107.68338        0.00000        0.01231     107.69569
	           B(10,3,11)     107.62995       -0.00000       -0.00021     107.62974
	           B(12,6,13)     107.68338        0.00000        0.01231     107.69569
	           B(12,6,14)     107.68338        0.00000        0.01231     107.69569
	           B(13,6,14)     107.62995       -0.00000       -0.00021     107.62974
	          D(1,2,6,12)     180.00000        0.00000        0.00000     180.00000
	          D(1,2,6,13)     -59.94104       -0.00000       -0.00461     -59.94565
	          D(1,2,6,14)      59.94104        0.00000        0.00461      59.94565
	           D(2,1,3,9)     180.00000        0.00000        0.00000     180.00000
	          D(2,1,3,10)     -59.94104       -0.00000       -0.00461     -59.94565
	          D(2,1,3,11)      59.94104        0.00000        0.00461      59.94565
	           D(3,1,2,6)     180.00000        0.00000        0.00000     180.00000
	           D(3,1,2,7)     -57.92034        0.00000       -0.00189     -57.92223
	           D(3,1,2,8)      57.92034       -0.00000        0.00189      57.92223
	           D(4,1,2,6)     -57.92034        0.00000       -0.00189     -57.92223
	           D(4,1,2,7)      64.15932        0.00000       -0.00378      64.15554
	           D(4,1,2,8)     180.00000       -0.00000        0.00000     180.00000
	           D(4,1,3,9)      57.96504        0.00000        0.02860      57.99364
	          D(4,1,3,10)     178.02400        0.00000        0.02399     178.04798
	          D(4,1,3,11)     -62.09393        0.00000        0.03321     -62.06071
	           D(5,1,2,6)      57.92034       -0.00000        0.00189      57.92223
	           D(5,1,2,7)     180.00000       -0.00000        0.00000     180.00000
	           D(5,1,2,8)     -64.15932       -0.00000        0.00378     -64.15554
	           D(5,1,3,9)     -57.96504       -0.00000       -0.02860     -57.99364
	          D(5,1,3,10)      62.09393       -0.00000       -0.03321      62.06071
	          D(5,1,3,11)    -178.02400       -0.00000       -0.02399    -178.04798
	          D(7,2,6,12)      57.96504        0.00000        0.02860      57.99364
	          D(7,2,6,13)     178.02400        0.00000        0.02399     178.04798
	          D(7,2,6,14)     -62.09393        0.00000        0.03321     -62.06071
	          D(8,2,6,12)     -57.96504       -0.00000       -0.02860     -57.99364
	          D(8,2,6,13)      62.09393       -0.00000       -0.03321      62.06071
	          D(8,2,6,14)    -178.02400       -0.00000       -0.02399    -178.04798
	-------------------------------------------------------------------------------

	                                 ==> Convergence Check <==                                  
    
	Measures of convergence in internal coordinates in au.
    
	Criteria marked as inactive (o), active & met (*), and active & unmet ( ).

	----------------------------------------------------------------------------------------------
	   Step    Total Energy     Delta E     Max Force     RMS Force      Max Disp      RMS Disp   
	----------------------------------------------------------------------------------------------
	  Convergence Criteria     1.00e-06 *    3.00e-04 *             o    1.20e-03 *             o
	----------------------------------------------------------------------------------------------
	     3    -157.29976712   -1.53e-05      1.65e-04 *    3.91e-05 o    6.48e-04 *    3.18e-04 o  ~
	----------------------------------------------------------------------------------------------

Next Geometry in Ang 
	Fragment 1 (Ang)

	    C   0.0000740586   0.7647314562   0.0000000000
	    C  -0.0000740586  -0.7647314562   0.0000000000
	    C  -1.4058598926   1.3640314002   0.0000000000
	    H   0.5458108994   1.1236729669   0.8706739520
	    H   0.5458108994   1.1236729669  -0.8706739520
	    C   1.4058598926  -1.3640314002  -0.0000000000
	    H  -0.5458108994  -1.1236729669   0.8706739520
	    H  -0.5458108994  -1.1236729669  -0.8706739520
	    H  -1.3718622503   2.4495279058   0.0000000000
	    H  -1.9659995065   1.0510691267  -0.8771673383
	    H  -1.9659995065   1.0510691267   0.8771673383
	    H   1.3718622503  -2.4495279058   0.0000000000
	    H   1.9659995065  -1.0510691267  -0.8771673383
	    H   1.9659995065  -1.0510691267   0.8771673383


    Final optimized geometry and variables:
    Molecular point group: c2h
    Full point group: C2h

    Geometry (in Angstrom), charge = 0, multiplicity = 1:

    C       
    C             1    1.529685
    C             1    1.528316      2  113.096411
    H             1    1.088390      2  109.284092      3  122.079659
    H             1    1.088390      2  109.284092      3 -122.079659
    C             2    1.528316      1  113.096411      3 -180.000000
    H             2    1.088390      1  109.284092      6  122.079659
    H             2    1.088390      1  109.284092      6 -122.079659
    H             3    1.085980      1  111.330055      2 -180.000000
    H             3    1.086755      1  111.167262      9  120.058962
    H             3    1.086755      1  111.167262      9 -120.058962
    H             6    1.085980      2  111.330055      1 -180.000000
    H             6    1.086755      2  111.167262     12  120.058962
    H             6    1.086755      2  111.167262     12 -120.058962

    Molecular point group: c2h
    Full point group: C2h

    Geometry (in Angstrom), charge = 0, multiplicity = 1:

    C       
    C             1    1.529685
    C             1    1.528316      2  113.096411
    H             1    1.088390      2  109.284092      3  122.079659
    H             1    1.088390      2  109.284092      3 -122.079659
    C             2    1.528316      1  113.096411      3 -180.000000
    H             2    1.088390      1  109.284092      6  122.079659
    H             2    1.088390      1  109.284092      6 -122.079659
    H             3    1.085980      1  111.330055      2 -180.000000
    H             3    1.086755      1  111.167262      9  120.058962
    H             3    1.086755      1  111.167262      9 -120.058962
    H             6    1.085980      2  111.330055      1 -180.000000
    H             6    1.086755      2  111.167262     12  120.058962
    H             6    1.086755      2  111.167262     12 -120.058962

