[Molden Format]

[FREQ]
        -128.4987582873
         248.8736841729
         261.9028121842
         407.1251139688
         434.2819048622
         872.3149865294
         940.6703630926
         998.6370839639
        1165.6600557316
        1194.5141062048
        1216.6077071641
        1289.0054082888
        1385.1064971131
        1407.1096332471
        1540.4458779852
        1540.9941208261
        1620.7679358281
        1703.6095713429
        1741.5937996681
        1748.5144561983
        1830.0985484758
        1831.9027848677
        1838.5287230088
        1838.9688743688
        1848.6278327137
        1854.7366714881
        3566.1517419941
        3566.1731393825
        3608.4476018569
        3612.7169496501
        3720.1795219721
        3723.7494129535
        3749.9407389441
        3749.9802209149
        3751.4486250541
        3751.7389297686

[FR-COORD]
C          1.5922728853       -0.2198890789       -3.1685395318
C          1.5922728853       -0.2198890789       -0.2552115058
H          1.5922728853        1.6992152624       -3.8958690231
H          3.2564325073       -1.1805940687       -3.8902782847
H         -0.0698992914       -1.1801022836       -3.8947878719
C         -0.7576368838        1.1275116448        0.8963932010
H          1.6679614989       -2.1645877081        0.4070935089
H          3.3076930104        0.6980474097        0.4087296615
C         -2.3719979365       -0.6280207464        2.5695413660
H         -0.1477570731        2.7382162236        2.0187874916
H         -1.9371412240        1.8718689499       -0.6138820309
H         -3.9892779395        0.3836634099        3.3272937844
H         -3.0644049609       -2.2282881330        1.4869614879
H         -1.2696946923       -1.3484284341        4.1436792188

[FR-NORM-COORD]
vibration 1
           0.1151031913        0.1085638786       -0.0279267428
          -0.0787279650       -0.1123292499       -0.0283407602
           0.2251506993        0.1612178759        0.1110391740
           0.1279079147        0.1039884181        0.0077776256
           0.1285707865        0.2170080432       -0.2020884575
          -0.0818750819       -0.0623180756       -0.0950372561
          -0.2492806427       -0.1712444450       -0.1821643818
          -0.0690801371       -0.2743729350        0.1707431598
           0.0376049635        0.0574981712        0.1452397679
          -0.1013519141        0.0890370773       -0.3016719806
          -0.1657963152       -0.2801298233       -0.1367048630
           0.0502323977        0.0897297454        0.1290728371
           0.0224068333       -0.0528278459        0.3180720430
           0.1252435064        0.2198172961        0.1581396546
vibration 2
          -0.0291601294        0.0061602946        0.0084586672
           0.0072444427        0.0075461293        0.0081521872
           0.3627939303        0.0064224518        0.0088812318
          -0.2435404890       -0.3450768034       -0.0180619866
          -0.2431874717        0.3568830820        0.0348208508
           0.0084174384        0.0094856392        0.0038796207
          -0.0078917269        0.0075530636        0.0092500526
           0.0202409828       -0.0073443004       -0.0048581035
           0.0176458061       -0.0186817716       -0.0173042452
          -0.0140939590        0.0140293712        0.0095804917
           0.0132492786       -0.0017267258       -0.0051340912
          -0.2128145690       -0.1511861451       -0.3325171007
           0.3670037548       -0.2222377460        0.0602973613
          -0.0911439921        0.2889804842        0.1998033996
vibration 3
           0.0329631837       -0.0309185959        0.0055395424
          -0.0214608866        0.0542194009        0.0043156635
           0.4380425672       -0.0558223625       -0.0604214114
          -0.1448120271       -0.3926734255        0.0768746285
          -0.1433664584        0.2787382278       -0.0000004304
          -0.0509017028        0.0222040633       -0.0183012634
          -0.0024512558        0.0700876282        0.0474681101
          -0.0401280772        0.0878287791        0.0063635498
           0.0303689419       -0.0337395336        0.0035467359
          -0.0836016685        0.0405534097       -0.0270336717
          -0.0819631081       -0.0163772417       -0.0136141985
           0.2250575055        0.0095398543        0.3610154782
          -0.2585960248        0.1534347623       -0.0885208328
           0.1993427318       -0.3153974558       -0.2437958389
vibration 4
          -0.0729392282        0.0643384085        0.0342855523
           0.1716585576       -0.0016189887        0.0312811042
          -0.0466042707        0.0969541044        0.1202756059
          -0.2216247919       -0.0084017724       -0.2092581741
          -0.2252816900        0.2079021432        0.1941434158
           0.0317741609       -0.1537358976       -0.0761804964
           0.3887613798        0.0141050190        0.0565726265
           0.0919276257        0.2069307875       -0.0492856280
          -0.0897922272        0.0460116648        0.0213387973
          -0.1093865928       -0.0119877980       -0.2039386847
           0.0659280101       -0.3369592514       -0.1914335292
           0.0607837788        0.2987026371        0.0076929439
          -0.3334399949        0.0902856837        0.1110543531
          -0.1556864213       -0.0216669557        0.0364768404
vibration 5
          -0.1149332005        0.0322493069        0.1522692017
          -0.0123560575       -0.0845431660        0.1190534673
          -0.2636748548        0.0762471130        0.2712555803
          -0.1336744350        0.1455665579       -0.0362490680
          -0.1372465689        0.0119708482        0.2315983350
           0.0030991039        0.0744767216       -0.1261648154
          -0.2396290874       -0.1043979728        0.0793704211
           0.0429213516       -0.2500537768        0.2004814584
           0.1417028154       -0.0031387688       -0.1317043262
          -0.0970099055        0.1912353434       -0.2420332226
           0.0288722387       -0.1247889832       -0.2412774533
           0.1313477354       -0.1480967159        0.0344616644
           0.1759733733        0.0301425460       -0.2018477217
           0.2835998950       -0.0545797214       -0.2559488400
vibration 6
          -0.0110918685       -0.0071942045        0.0473893012
          -0.0595815252       -0.0477737572       -0.0026344575
           0.0707490966        0.0900125600        0.3064315616
           0.0533448731        0.1020109680        0.0552478659
           0.0294530684        0.1135222348       -0.2007309703
          -0.0223291423       -0.0412997695       -0.0602907379
           0.2785388468        0.0521512670        0.2477363097
          -0.1818226259        0.3161099457       -0.1992944280
           0.0237077978        0.0209133570       -0.0376975294
           0.1881910473       -0.3091847082        0.2041868405
           0.1005617189        0.3601006915        0.0434952764
           0.0957652961        0.0601384778        0.0593011127
          -0.0303926151       -0.1145439405        0.2000093171
           0.2206918711        0.2269141277       -0.0825416311
vibration 7
           0.0186860205        0.0227275111        0.0184192124
           0.0448092014        0.0549279636       -0.0043806913
          -0.1013462931       -0.0837749313       -0.2603698174
          -0.0842115597       -0.1110610462       -0.0388948821
          -0.0591520883       -0.1026835938        0.3635391823
          -0.0281703379       -0.0244333963       -0.0604448086
          -0.2292170990       -0.0363458444       -0.2435735001
           0.0726505741       -0.2049931647        0.2846697058
          -0.0228265716       -0.0224152317       -0.0134714447
           0.0232982660       -0.2586610461        0.2467563915
           0.0996022630        0.3212278353        0.0090312084
           0.0852004117        0.0731655279        0.0912503613
          -0.1373877133       -0.1877607108        0.3034371300
           0.1817479737        0.2240751267       -0.0428918799
vibration 8
          -0.0463259799        0.0417316414        0.1012682229
          -0.1331893483        0.0895481858       -0.0398906350
           0.0899155044       -0.0757085805       -0.1990367551
           0.0566042227       -0.0996438889        0.5420283917
           0.0780839333       -0.1170426390        0.0354799550
           0.0852540195       -0.1416753135        0.0030659158
          -0.1129023200        0.0416484435       -0.2096676225
          -0.1324081142        0.0330416391        0.0051931849
           0.1017600503        0.0185499611       -0.0586828567
           0.0656950347       -0.1055886076       -0.0564431848
          -0.0520504043       -0.2210257647        0.0829481605
           0.2064192100        0.3856679707       -0.3399693928
          -0.0939078852        0.0998349716       -0.0476360789
          -0.1947354124       -0.0382774788        0.1185123056
vibration 9
          -0.0459858309        0.0297481589        0.1292050286
           0.0218539928        0.0037766965       -0.1144879877
           0.1006512493       -0.0233133881        0.0074753373
           0.0662546340       -0.0344897220        0.4963423292
           0.0707397863       -0.0737860945        0.0186421598
           0.0665690831        0.0524019361       -0.0801371356
           0.0867933888       -0.0373991108       -0.2581568310
           0.1252529648       -0.0536296212       -0.3148093070
          -0.1077460276       -0.0374128410        0.0817597586
           0.2514176698        0.0835678044       -0.2178874654
           0.1965758046        0.0819833602       -0.1738202078
          -0.2295203326       -0.3561293209        0.2691227821
           0.0672611224       -0.0775689061        0.0159699201
           0.0421941986       -0.0868822973       -0.0374322948
vibration 10
           0.0637381062        0.0218734104        0.0314650254
          -0.0286043737       -0.0363501094       -0.0397583167
          -0.1211693255       -0.0286807997       -0.0961707928
          -0.0978357984       -0.0856623621       -0.1960858933
          -0.0784786605       -0.0205964328        0.4193750522
          -0.0425726325       -0.0410511301       -0.0149211134
           0.2192006854       -0.0563686026       -0.1237640993
          -0.2673480486        0.2194004584        0.2049918128
           0.0168304950        0.0657406925        0.0304291887
           0.3601938148       -0.1184356242       -0.1336661917
          -0.1738837907        0.1056483973        0.1585773545
          -0.1485852487       -0.1823075091        0.0067810606
           0.2381028740        0.1941793309       -0.2967490337
          -0.0420206146       -0.1487796702       -0.0291944655
vibration 11
           0.0502240279       -0.0632699667        0.0743721904
          -0.0029642703        0.0469278606       -0.0954562049
          -0.0900071571        0.0740520180        0.4512929734
          -0.0199899041        0.0961211794       -0.2921507049
          -0.0860197423        0.1237083868        0.1537226997
           0.0152590426        0.0667447008       -0.0814568331
          -0.2701825422        0.1225154185        0.1300367092
           0.0473732156       -0.0653435853       -0.0813205918
           0.0224133628       -0.0935126134        0.0530076015
           0.1095194992        0.0022371642       -0.0335788764
          -0.2434524769        0.1515828341        0.1505710306
           0.0809214440        0.2058569115       -0.2146288633
          -0.2061908126       -0.0069712838        0.0614053298
          -0.3332442370       -0.1904554366        0.2644341693
vibration 12
          -0.0074626944        0.0193047763       -0.0997734687
          -0.1004088190        0.0515245427        0.1359128882
          -0.0258804074       -0.0140204428       -0.2108817672
          -0.0264184240       -0.0072342694       -0.1217393629
          -0.0053633595        0.0047831118       -0.1065385290
           0.1437110227       -0.0044356726       -0.1026472963
          -0.1661945751        0.1305939320        0.3625603937
          -0.2462252562        0.1564074833        0.3533863604
          -0.0380651068       -0.0688138412        0.0647981729
           0.3871254861       -0.0031857592       -0.2451442756
           0.3496583099        0.0689128568       -0.2216207147
          -0.0657715293       -0.0930174711        0.0509174406
          -0.0537895802       -0.0691088752        0.0610962097
          -0.1206408566       -0.1453137210        0.0983213967
vibration 13
           0.0543992218       -0.0795295769        0.0271564957
          -0.0724145558        0.1274720122       -0.0721705469
          -0.0911523723        0.0583865903        0.4039698014
           0.0031313317        0.0888008299       -0.3145089447
          -0.0928428476        0.1361810830        0.0882499508
           0.0801773458       -0.1190303661        0.0781340582
          -0.3431422151        0.1564365860       -0.0032078348
          -0.0018607598       -0.0646273612       -0.0139104993
          -0.0624945356        0.0707263189       -0.0333754678
          -0.0578831853       -0.0003407740       -0.0319858100
           0.2165580660       -0.2940903642       -0.0940364219
          -0.1054962356       -0.2001172398        0.2358704337
           0.1815952316       -0.0396675520       -0.0200685480
           0.2950522911        0.1633438530       -0.2473303993
vibration 14
           0.0802961655        0.0378567433        0.0232457010
          -0.1067465620       -0.0847194802       -0.0499661299
          -0.1288011681       -0.0190529710       -0.1221833466
          -0.0833303771       -0.1048635343       -0.1634757603
          -0.0475735381       -0.0247355148        0.4107953400
           0.0643929936        0.1013859130        0.0815062663
           0.2941508203       -0.0772575276       -0.0686236068
          -0.2441636144        0.2133571242       -0.1414088282
          -0.0201987388       -0.0714262262       -0.0539562393
          -0.1570414709        0.3080978107       -0.0744801081
           0.1806009436       -0.2007365996       -0.1558542622
           0.1496187485        0.1484563755        0.0154795818
          -0.2214893201       -0.2138596024        0.2771903113
           0.0467558957        0.1718561602        0.0126827962
vibration 15
          -0.0452367657       -0.0554858974       -0.0029397626
           0.0427156041        0.0313304570        0.0074078325
           0.0670551419        0.0118649862        0.1843743314
           0.0468439642        0.0763599558        0.0328464069
           0.0011273274        0.0373526493       -0.2454045842
           0.0167792987        0.0333619443        0.0382959170
           0.1537266348       -0.0858533322       -0.3456642979
          -0.1473437712        0.0701721399        0.4533009112
          -0.0325496979       -0.0290976125       -0.0568186119
           0.3473185892        0.1472639691       -0.2997162715
          -0.3017739603       -0.0751013805        0.2320034681
           0.0650431472        0.0453079211        0.0531169016
          -0.1070031607       -0.1524960572        0.1640816407
           0.0928005692        0.1619691712       -0.0615924946
vibration 16
           0.0109587732        0.0605255313       -0.0053882187
           0.0169040423       -0.0303154064        0.0008793089
          -0.0079978240       -0.0132885065       -0.2133863837
          -0.0256638050       -0.0604206855        0.0718000866
           0.0225375543       -0.0606026771        0.1368791390
           0.0280012166       -0.0182493601        0.0094017446
          -0.2143408758        0.1327912020        0.5091572570
           0.1470988990       -0.0826219066       -0.2561063956
          -0.0414329501        0.0035516642       -0.0456332295
           0.2476831955        0.0267813521       -0.1787788219
          -0.4460024298       -0.1191539347        0.3311442849
           0.0004486277       -0.0320222263        0.0918598102
          -0.0220207229       -0.1090538225        0.1026239668
           0.1264289600        0.1328873714       -0.1101040424
vibration 17
           0.0339842711       -0.0118297648        0.0097347480
          -0.0395725941        0.0527731226        0.0937916570
          -0.0502303179       -0.0430004978       -0.0813110353
          -0.0363543987        0.0289157946       -0.2182652526
           0.0072666133        0.0688814910       -0.0370934384
          -0.1043959806       -0.0177188150        0.0439933418
           0.0958932871       -0.0520242203       -0.2281774697
           0.3169604209       -0.1999338250       -0.4627130979
           0.0133557093       -0.0342622609       -0.0061124752
           0.5015612279        0.0008098171       -0.3208996125
           0.1939714101        0.0546302923       -0.1528326041
           0.0881345424        0.1642909656       -0.1226308212
          -0.0314507055        0.0267784956       -0.0668368796
           0.0647880381        0.0820759054        0.0070480534
vibration 18
           0.0281350889       -0.0174754472        0.0370449670
          -0.0701772136        0.0257771231        0.1100894674
          -0.0785031191       -0.0922172948       -0.1648285216
          -0.0785816101        0.0339948403       -0.2887335836
           0.0474517307        0.1075066586       -0.1802544161
           0.1007803018        0.0075021924       -0.0865795715
           0.1739515758       -0.1360223245       -0.3885167644
           0.1074006929       -0.0136710894       -0.2992652231
          -0.0010206731        0.0469609071       -0.0162152116
          -0.2064855128       -0.0940787606        0.2231461904
          -0.3704607973       -0.0776713246        0.2375546513
          -0.1114311217       -0.2406236104        0.1427624544
          -0.0287804105       -0.0872025126        0.1945979801
          -0.1417938602       -0.1473440098       -0.0044074000
vibration 19
          -0.0079891225        0.0051787359        0.1116606098
           0.0102140389       -0.0140354083       -0.0370559815
           0.0271416781       -0.1704224917       -0.3543528514
          -0.1592570905        0.0804526334       -0.3402980133
           0.1685053406        0.0539895783       -0.3616323654
           0.0343898684        0.0122542871       -0.0184841581
          -0.0432981643        0.0111139279        0.0414470613
          -0.0801749571        0.0644315457        0.0799850836
          -0.0681633547       -0.0602574579        0.0654342701
          -0.1172057311        0.0241630630        0.0515381374
          -0.0437519747        0.0106214395        0.0410996887
           0.0810807369        0.3418084417       -0.1556672771
           0.2050021265        0.0936772202       -0.3335968862
           0.3376014524        0.1671850536       -0.1158540456
vibration 20
          -0.0149034616        0.0081089677        0.1113243035
           0.0395225561       -0.0125198953       -0.0756503402
           0.0733070277       -0.1600582691       -0.3354304546
          -0.1450360421        0.0977242411       -0.3090812355
           0.1659633371        0.0254169440       -0.3258788918
          -0.0627546494       -0.0127439208        0.0578028032
          -0.1476707260        0.0678380617        0.1694409192
          -0.0684976068        0.0466930716        0.1178083908
           0.0722017059        0.0541999233       -0.0673062355
           0.1209953470        0.0103962404       -0.0774779425
           0.1882568830       -0.0237024067       -0.1382614588
          -0.0541973489       -0.3143787911        0.1560257271
          -0.2068920367       -0.0699253690        0.2944344145
          -0.3318486591       -0.1210930839        0.1368125019
vibration 21
           0.0234085135       -0.0156677852        0.0110043672
          -0.0248557477        0.0108243221       -0.0286407227
          -0.2949112005       -0.0629411784       -0.1217318606
           0.0760669024       -0.0039986096        0.1297739886
          -0.1231133029        0.3088389371       -0.0880124839
          -0.0004532002       -0.0383482123        0.0091984928
           0.3059720521        0.0823417789        0.1615606304
           0.0855805043       -0.3091063631        0.1464859643
          -0.0127158391        0.0272968780       -0.0027897123
          -0.1851460551        0.2008500380       -0.2229788574
           0.0688483603        0.3252659130        0.1263861286
           0.0475774518        0.1384594911       -0.0347923026
           0.2277981422       -0.1950142561        0.1684343862
          -0.0346393898       -0.2954391212       -0.1314407799
vibration 22
          -0.0237961127        0.0114314874       -0.0073787693
           0.0228262585       -0.0158493748        0.0313605131
           0.3279044984        0.0410175388        0.0767304713
          -0.0455002051        0.0677008130       -0.1469511180
           0.0972848211       -0.2811211288        0.1113853084
           0.0014157322       -0.0391308519        0.0149121476
          -0.3052379534       -0.0876526324       -0.1587566025
          -0.0729943980        0.3016865238       -0.1757064741
          -0.0115089816        0.0247913848        0.0020601221
          -0.1596128943        0.2074784221       -0.2422451242
           0.0716593350        0.3221939056        0.1307797839
           0.0156433076        0.1341876978       -0.0999768514
           0.1858900769       -0.1847487930        0.1794542097
           0.0166898916       -0.2974017420       -0.1623460278
vibration 23
          -0.0181562170       -0.0368680143        0.0017164318
          -0.0055402437       -0.0082069212       -0.0040020351
           0.2272794329       -0.1120683648       -0.2099697499
           0.2608428200        0.4406592995        0.0103275277
          -0.2291089639        0.1980901543        0.1860881472
           0.0071113683        0.0055506223        0.0057176379
           0.0184300376       -0.0001662310        0.0253030772
          -0.0113533274       -0.0072793377        0.0031274878
           0.0229097456        0.0077882868        0.0332650301
           0.0008126260        0.0059530843        0.0124714947
          -0.0087540342       -0.0297268383        0.0044205570
          -0.2787013057       -0.1460548305       -0.4041733829
          -0.3223668286        0.0967039083        0.1144716998
           0.2676129811       -0.0682354135       -0.1790125216
vibration 24
          -0.0213859095       -0.0348502624       -0.0018792765
          -0.0023193113       -0.0083241829        0.0051449468
           0.2699851456       -0.1017276692       -0.1907215330
           0.2549583247        0.4438435675       -0.0025607282
          -0.2169532292        0.1558055044        0.2065055393
          -0.0030316486        0.0025051013       -0.0092556098
          -0.0202547584       -0.0148222116       -0.0052707506
          -0.0082147525        0.0255551833       -0.0356133051
          -0.0224163579       -0.0127835148       -0.0317692708
           0.0026001732       -0.0316599437        0.0313007670
          -0.0089030603       -0.0168865012       -0.0171279379
           0.2756588280        0.1331856654        0.4101766062
           0.2970828177       -0.0686384779       -0.1449234796
          -0.2607004329        0.1117989147        0.1978272699
vibration 25
          -0.0287516817        0.0145207458        0.0013320086
          -0.0345511366        0.0212855918       -0.0235560278
           0.3317250086        0.0443603488        0.0835538844
          -0.0722428028        0.0575454132       -0.1612858907
           0.1160355298       -0.2998440426        0.0889174092
          -0.0132723024        0.0444259461       -0.0072089228
           0.3079155293        0.0815653333        0.1240023146
           0.0789032244       -0.3006148708        0.1360362346
          -0.0201409019        0.0238850460        0.0079471965
           0.1824102802       -0.1880599765        0.2155520830
          -0.0468826720       -0.3042613681       -0.1485611898
           0.0241026207        0.1623177411       -0.0872732771
           0.2182644682       -0.1886810363        0.1674515101
           0.0113499253       -0.3040347493       -0.1625659880
vibration 26
          -0.0239928622        0.0137047619        0.0015500089
          -0.0483821565        0.0241967806       -0.0085105168
           0.3225749058        0.0406856199        0.0759314660
          -0.0769791594        0.0557321524       -0.1837329677
           0.1172018725       -0.2936267409        0.0892977858
           0.0277469806       -0.0466357212       -0.0073417693
           0.3222542269        0.0715878457        0.0971545547
           0.0969048708       -0.3131655555        0.0904090924
           0.0182950315       -0.0199004220       -0.0059269394
          -0.2225507559        0.1765273088       -0.1869314009
           0.0201825867        0.3007908852        0.1659099299
          -0.0366429570       -0.1792888837        0.0964455189
          -0.2134970949        0.1889068810       -0.1632734467
          -0.0159058982        0.2927977720        0.1596552844
vibration 27
          -0.0000530510        0.0001274436        0.0379579988
           0.0002476222       -0.0000542009       -0.0019201589
           0.0001429581        0.3815848199       -0.1402495930
           0.3318882893       -0.1915750843       -0.1399681539
          -0.3313095757       -0.1915802532       -0.1405046231
          -0.0011774054       -0.0009554704        0.0012086602
          -0.0000580045        0.0023139480       -0.0025017915
          -0.0040022966       -0.0023562870       -0.0034950405
           0.0211730043        0.0228390757       -0.0217774667
          -0.0026726846       -0.0049068384       -0.0016339840
           0.0004504926       -0.0018985759        0.0028083246
          -0.3206942078        0.2043898699        0.1490260595
          -0.1359606233       -0.3167473824       -0.2185928409
           0.2218147558       -0.1406606443        0.3109245124
vibration 28
          -0.0001011148        0.0001556020        0.0379897418
           0.0006735194       -0.0004850718       -0.0018747422
           0.0001825330        0.3820468392       -0.1404685370
           0.3321741001       -0.1917816809       -0.1398276013
          -0.3316867654       -0.1918301712       -0.1406630730
           0.0016056703        0.0005289632       -0.0011561942
          -0.0005144617        0.0092637086       -0.0047107278
          -0.0061929481       -0.0029295317       -0.0037456860
          -0.0211768994       -0.0227634099        0.0217548136
           0.0026445625        0.0066784951        0.0030439444
          -0.0047989470        0.0046018443       -0.0079993030
           0.3201139284       -0.2042546126       -0.1486335837
           0.1358237514        0.3163668237        0.2183540732
          -0.2215300042        0.1405029727       -0.3106288511
vibration 29
          -0.0022338726        0.0013067440       -0.0021866127
           0.0370035578       -0.0198604534        0.0287935589
          -0.0009790376       -0.0151089630        0.0021503050
           0.0090904860       -0.0052082165       -0.0024316420
           0.0122861136        0.0083768910        0.0023342534
           0.0099360149       -0.0492982687        0.0079997113
          -0.0131886203        0.4684365994       -0.1555995629
          -0.4170734263       -0.2310849640       -0.1600820416
          -0.0004358808        0.0032621054       -0.0008054020
           0.1537453124        0.3896609298        0.2784383625
          -0.2849073497        0.1729812211       -0.3643464195
           0.0079665126       -0.0064312993       -0.0032955771
          -0.0044405192       -0.0098126114       -0.0105157062
           0.0103873737       -0.0027490396        0.0108822693
vibration 30
          -0.0017543089        0.0009867782       -0.0020129875
           0.0384453863       -0.0241700865        0.0277220026
          -0.0009543856       -0.0097687078        0.0010269112
           0.0108739880       -0.0062584256       -0.0024432088
           0.0084427851        0.0059018196        0.0011332049
          -0.0143108592        0.0504121126       -0.0091814255
          -0.0079304155        0.4815830649       -0.1642301061
          -0.4031280797       -0.2253527969       -0.1567327869
           0.0001474358       -0.0027339758        0.0007785427
          -0.1512641754       -0.3775084087       -0.2691528594
           0.2889429908       -0.1759726389        0.3801015261
          -0.0092928521        0.0079769644        0.0036573127
           0.0029042474        0.0064372422        0.0075834346
          -0.0068270204        0.0013061604       -0.0070045811
vibration 31
           0.0047831930        0.0132265645       -0.0001231065
          -0.0331304865       -0.0584554126       -0.0001613107
           0.0008000015       -0.1044815820        0.0354097065
           0.0168430272       -0.0072266986       -0.0072291546
          -0.0719745413       -0.0402261525       -0.0278148884
           0.0367108988        0.0174921811        0.0534936082
          -0.0144927995        0.4656884407       -0.1582099182
           0.4007293022        0.2186652270        0.1569122030
          -0.0089740302       -0.0017336468       -0.0106920755
          -0.1468031425       -0.3767611739       -0.2637212979
          -0.2816707588        0.1751747395       -0.3634692684
           0.0143672067       -0.0099172159       -0.0091298828
           0.0269105039        0.0673090817        0.0481524767
           0.0625594254       -0.0373266882        0.0828560138
vibration 32