[Molden Format]

[FREQ]
        -129.0302455214
         249.8564158214
         262.1642494762
         402.5058325178
         437.2457571634
         870.9557143868
         942.1736077072
         998.6202195097
        1166.3770731667
        1193.3429181796
        1218.1606497627
        1288.7084035132
        1383.8324492966
        1409.5063037282
        1539.7848871366
        1543.2093961966
        1618.8137801017
        1704.2026932278
        1741.4687251641
        1748.8303327468
        1829.9788718605
        1831.9458641039
        1838.4977328004
        1838.8999477717
        1848.8864393261
        1854.5152108071
        3566.1325947172
        3566.1601768245
        3608.5529153675
        3612.5442054760
        3719.9702724797
        3724.0380945437
        3749.8476543561
        3749.9178243451
        3751.5147291641
        3751.9356278227

[FR-COORD]
C          1.5773217723       -0.2312806486       -3.1887247638
C          1.5773217723       -0.2312806486       -0.2757193546
H          1.5773217723        1.6876239078       -3.9166201323
H          3.2411093792       -1.1925382060       -3.9107399770
H         -0.0854188253       -1.1913838622       -3.9135943025
C         -0.7689341758        1.1223299757        0.8755401133
H          1.6445379683       -2.1773684824        0.3835370525
H          3.2958434058        0.6788266401        0.3908346433
C         -2.3320735391       -0.6006483315        2.6287018869
H         -0.1614747766        2.7760387909        1.9348536676
H         -1.9850749263        1.8020097672       -0.6362240903
H         -3.9463130577        0.4152206021        3.3874838266
H         -3.0261274470       -2.2383112806        1.6048426154
H         -1.1930361276       -1.2640537203        4.2017601371

[FR-NORM-COORD]
vibration 1
           0.1137626888        0.1091247380       -0.0270776483
          -0.0798812395       -0.1131474739       -0.0276001328
           0.2226337970        0.1621833988        0.1128192453
           0.1271370438        0.1060045555        0.0080294331
           0.1277908208        0.2168250463       -0.2018307263
          -0.0828927135       -0.0662698194       -0.0931773930
          -0.2490749197       -0.1713529070       -0.1823122945
          -0.0720912113       -0.2738148611        0.1718186804
           0.0409670363        0.0614259956        0.1418864577
          -0.1061132410        0.0773876398       -0.3040456389
          -0.1654757906       -0.2855848112       -0.1252832143
           0.0536162607        0.0932305880        0.1260889231
           0.0291630300       -0.0438234513        0.3182885740
           0.1281954526        0.2245174111        0.1474955014
vibration 2
          -0.0275860649        0.0054611922        0.0074538562
           0.0072723526        0.0080967078        0.0072002108
           0.3653554286        0.0052579031        0.0066453024
          -0.2414654651       -0.3463159566       -0.0168224513
          -0.2409181264        0.3559836071        0.0327673873
           0.0083509626        0.0090557275        0.0043752386
          -0.0065557331        0.0083555633        0.0087113896
           0.0198450761       -0.0057913564       -0.0062330333
           0.0159625388       -0.0182142094       -0.0160621647
          -0.0133757777        0.0128001197        0.0110012746
           0.0132222997       -0.0010671588       -0.0038052131
          -0.2184553011       -0.1604244992       -0.3246000310
           0.3682729753       -0.2159953404        0.0616315734
          -0.0935501806        0.2948139997        0.1953745634
vibration 3
           0.0343598957       -0.0317184335        0.0053350575
          -0.0230783868        0.0555738718        0.0040656587
           0.4393713194       -0.0574290659       -0.0626695206
          -0.1418044988       -0.3930812745        0.0801875596
          -0.1402285294        0.2761746110       -0.0017046518
          -0.0528617989        0.0227450055       -0.0180358048
          -0.0036849502        0.0714823366        0.0478238980
          -0.0422733927        0.0899169787        0.0069742466
           0.0319481011       -0.0344120745        0.0035177080
          -0.0871338533        0.0404973072       -0.0262919838
          -0.0836504647       -0.0166759085       -0.0115252177
           0.2308471249        0.0177495113        0.3565350217
          -0.2576922438        0.1460947725       -0.0890674417
           0.2009383112       -0.3198540939       -0.2393301363
vibration 4
          -0.0735566815        0.0643838540        0.0326288789
           0.1706420028       -0.0015439886        0.0300541188
          -0.0380309126        0.0967291599        0.1177363036
          -0.2253808573       -0.0157003373       -0.2082246900
          -0.2286684526        0.2144606067        0.1906715216
           0.0323388538       -0.1539877499       -0.0725683935
           0.3861954055        0.0128177542        0.0544306368
           0.0939879535        0.2045546813       -0.0520223334
          -0.0891903847        0.0471481072        0.0210251748
          -0.1091298213       -0.0193243827       -0.2027369486
           0.0674770263       -0.3384941851       -0.1820617970
           0.0618585136        0.3009072108        0.0049003741
          -0.3365538528        0.0955227269        0.1106110248
          -0.1508118510       -0.0275754254        0.0340564673
vibration 5
          -0.1150373220        0.0327996402        0.1559240871
          -0.0116163536       -0.0829262376        0.1213365442
          -0.2574504851        0.0771413689        0.2757126384
          -0.1384109400        0.1398505359       -0.0347579166
          -0.1418911095        0.0193346942        0.2369728354
           0.0022216090        0.0725734502       -0.1283055889
          -0.2354704749       -0.1005362643        0.0847044029
           0.0397356051       -0.2432756491        0.2032653791
           0.1416606020       -0.0034558425       -0.1361711044
          -0.0958476557        0.1814240782       -0.2448996624
           0.0304920149       -0.1253968827       -0.2367955323
           0.1311403207       -0.1478676645        0.0293629691
           0.1818574175        0.0247083366       -0.2073243659
           0.2807080877       -0.0515052598       -0.2584569072
vibration 6
          -0.0102619856       -0.0071619586        0.0458439129
          -0.0571353181       -0.0484023778       -0.0026049827
           0.0703845369        0.0897052654        0.3035731989
           0.0527194375        0.1011737254        0.0511788580
           0.0288947619        0.1130671275       -0.1990690932
          -0.0241671341       -0.0412136612       -0.0577222275
           0.2865742438        0.0488469756        0.2453308257
          -0.1789141444        0.3188695111       -0.1992039970
           0.0217309866        0.0198042074       -0.0373344610
           0.1968136464       -0.2991499512        0.2124977045
           0.0912623411        0.3676310799        0.0350198572
           0.0935239891        0.0600229689        0.0573323316
          -0.0246958542       -0.1084392715        0.2022022973
           0.2149319816        0.2247863012       -0.0918768128
vibration 7
           0.0186804423        0.0231100794        0.0174373341
           0.0446075009        0.0546890152       -0.0039710031
          -0.1012884609       -0.0841818232       -0.2632029322
          -0.0846189665       -0.1118159680       -0.0392156855
          -0.0589558702       -0.1027397715        0.3633124228
          -0.0291158568       -0.0265692176       -0.0586717367
          -0.2254315032       -0.0356412209       -0.2452545676
           0.0694528082       -0.2032120869        0.2856997182
          -0.0226101451       -0.0224017127       -0.0131966614
           0.0278931848       -0.2489932174        0.2548645098
           0.0976134184        0.3204237558       -0.0055586048
           0.0867482658        0.0770732678        0.0879426113
          -0.1293767166       -0.1803604186        0.3110546818
           0.1802977858        0.2261954698       -0.0542587477
vibration 8
          -0.0468837946        0.0414851907        0.1015151147
          -0.1339705486        0.0896120235       -0.0398271203
           0.0915680578       -0.0749087219       -0.1956556219
           0.0585689052       -0.0977641516        0.5451895557
           0.0793801654       -0.1162157732        0.0298015866
           0.0871439044       -0.1412266673        0.0050840954
          -0.1084573220        0.0436889148       -0.2048675865
          -0.1338758123        0.0380634643       -0.0006495370
           0.1005228069        0.0176373731       -0.0617186975
           0.0670471960       -0.1117284768       -0.0489240494
          -0.0450874345       -0.2129262339        0.0909429331
           0.1984142925        0.3810254350       -0.3545153700
          -0.0986245758        0.0950067654       -0.0440733864
          -0.1900471721       -0.0336367400        0.1225815989
vibration 9
          -0.0463823440        0.0306636917        0.1270806091
           0.0217031623        0.0031874649       -0.1125115893
           0.1009239602       -0.0246914442       -0.0008883136
           0.0660238431       -0.0362053151        0.4977404181
           0.0713817819       -0.0758746235        0.0174665792
           0.0638492423        0.0496340086       -0.0812488414
           0.0879738114       -0.0391791401       -0.2591891240
           0.1245359222       -0.0539795012       -0.3120556107
          -0.1054743558       -0.0344765129        0.0832339240
           0.2449498387        0.0787516056       -0.2227067270
           0.1946829212        0.0784184669       -0.1800355128
          -0.2199437193       -0.3514091440        0.2855379353
           0.0708532851       -0.0764514092        0.0171036439
           0.0480922381       -0.0829171222       -0.0400801497
vibration 10
           0.0623055944        0.0233178504        0.0293356333
          -0.0280796430       -0.0366303926       -0.0371482953
          -0.1188653001       -0.0306387196       -0.1075548781
          -0.0972675662       -0.0879749045       -0.1885815071
          -0.0761886448       -0.0234405805        0.4148348871
          -0.0413600551       -0.0399127245       -0.0143772184
           0.2245476923       -0.0593364796       -0.1263090847
          -0.2666980442        0.2209903893        0.2085543777
           0.0170779313        0.0641908604        0.0295713636
           0.3619019645       -0.1160610393       -0.1379214779
          -0.1772193804        0.1114884822        0.1614041580
          -0.1444092280       -0.1784216229        0.0092869980
           0.2250185855        0.1874743068       -0.3044143683
          -0.0492195305       -0.1546452769       -0.0171891601
vibration 11
           0.0515126371       -0.0629599451        0.0775244484
          -0.0039307151        0.0465170217       -0.0994140840
          -0.0922560312        0.0737356458        0.4529646206
          -0.0215611374        0.0940619227       -0.2918608179
          -0.0875045812        0.1230112221        0.1654808819
           0.0151810631        0.0675788291       -0.0852432949
          -0.2648411838        0.1214910373        0.1207952237
           0.0411801377       -0.0604176977       -0.0816446565
           0.0228475751       -0.0945581519        0.0562592340
           0.1034091222        0.0081252995       -0.0355159160
          -0.2349731747        0.1544259075        0.1429550146
           0.0756584842        0.2012221670       -0.2197204605
          -0.2110705903       -0.0131889987        0.0737782779
          -0.3273913187       -0.1854452585        0.2785122209
vibration 12
          -0.0091731005        0.0188063990       -0.1007606236
          -0.0995148994        0.0517810093        0.1372211566
          -0.0226944130       -0.0136835316       -0.2096682474
          -0.0246860858       -0.0058202504       -0.1173796954
          -0.0039264603        0.0052613467       -0.1163705583
           0.1424551187       -0.0044518854       -0.1053492836
          -0.1628490879        0.1303177219        0.3624482618
          -0.2453713602        0.1585420423        0.3537334897
          -0.0365362342       -0.0691863479        0.0668363367
           0.3840966429       -0.0056088982       -0.2507738245
           0.3434633349        0.0687368805       -0.2284467857
          -0.0607874065       -0.0883948188        0.0539557725
          -0.0571564591       -0.0725972582        0.0710386711
          -0.1171173232       -0.1404275840        0.1059006580
vibration 13
           0.0565763814       -0.0785790485        0.0276240717
          -0.0754954242        0.1257902093       -0.0730639903
          -0.0948442214        0.0582209996        0.4010744511
           0.0003702983        0.0862267428       -0.3206838783
          -0.0945089120        0.1359178443        0.0996275484
           0.0819633339       -0.1186614629        0.0778591298
          -0.3373219975        0.1578800688        0.0012310556
          -0.0125802783       -0.0556877152       -0.0136737134
          -0.0634762404        0.0709733448       -0.0327411477
          -0.0482371695       -0.0113634705       -0.0314614707
           0.2198737290       -0.2873165033       -0.0883581172
          -0.1034518229       -0.1998467958        0.2441971047
           0.1879661455       -0.0329025298       -0.0302842542
           0.2878773750        0.1545504059       -0.2578354832
vibration 14
           0.0791289496        0.0403721706        0.0220209558
          -0.1063047857       -0.0872667505       -0.0476798888
          -0.1272549995       -0.0204669173       -0.1341428450
          -0.0836839227       -0.1076990913       -0.1555078793
          -0.0448934312       -0.0278317080        0.4087742974
           0.0657226635        0.1023490274        0.0799681183
           0.2964104437       -0.0791380324       -0.0585515473
          -0.2419341163        0.2148876967       -0.1445637832
          -0.0220964422       -0.0711999964       -0.0530898058
          -0.1606833747        0.3044392980       -0.0842880706
           0.1765430666       -0.2112591157       -0.1474769237
           0.1461323299        0.1456141022        0.0150186606
          -0.2095881704       -0.2093712111        0.2865670574
           0.0530802566        0.1783045316       -0.0003479086
vibration 15
          -0.0452518680       -0.0562020167       -0.0025739834
           0.0433410979        0.0325811496        0.0059343858
           0.0673645914        0.0126191592        0.1885768722
           0.0478562921        0.0774402590        0.0331404292
           0.0003123613        0.0380191752       -0.2453269765
           0.0171834913        0.0340842055        0.0389633580
           0.1506629394       -0.0846243522       -0.3478781645
          -0.1444686174        0.0676237618        0.4513990907
          -0.0336970276       -0.0307713098       -0.0560191448
           0.3363772773        0.1436381392       -0.3093833534
          -0.2962832560       -0.0754974927        0.2405082876
           0.0662674884        0.0483221954        0.0516264324
          -0.1014401575       -0.1495704002        0.1704016107
           0.0927261403        0.1638330913       -0.0699956333
vibration 16
           0.0107403911        0.0593023444       -0.0054129378
           0.0181480303       -0.0278754969        0.0015145824
          -0.0073097093       -0.0131093238       -0.2095024028
          -0.0246631630       -0.0579803401        0.0696843873
           0.0223330725       -0.0587414158        0.1329736065
           0.0264154545       -0.0187764442        0.0076227369
          -0.2208662069        0.1346489000        0.5074572312
           0.1522438001       -0.0860043908       -0.2570591986
          -0.0413624226        0.0018650006       -0.0440434218
           0.2483225498        0.0201113463       -0.1852409249
          -0.4404986539       -0.1076734811        0.3440562784
           0.0019359394       -0.0286379414        0.0894163940
          -0.0182536146       -0.1034405108        0.1026284965
           0.1207574897        0.1279947302       -0.1143419627
vibration 17
           0.0344798445       -0.0126760006        0.0092623410
          -0.0401480293        0.0534859436        0.0932416770
          -0.0508786688       -0.0419454460       -0.0764332756
          -0.0356760144        0.0289233310       -0.2194035246
           0.0058500430        0.0693668980       -0.0349483638
          -0.1037850151       -0.0166567079        0.0460259334
           0.0959144346       -0.0524964304       -0.2325269779
           0.3152259414       -0.1999317092       -0.4620866412
           0.0146793244       -0.0345017993       -0.0054298429
           0.4945903301       -0.0022288137       -0.3290010845
           0.1931838531        0.0547078751       -0.1603684719
           0.0848023718        0.1617208479       -0.1300100831
          -0.0349221143        0.0244277621       -0.0652028371
           0.0603661232        0.0806742657        0.0061127838
vibration 18
           0.0275636726       -0.0175654118        0.0381795346
          -0.0687769592        0.0260450245        0.1093364833
          -0.0771268641       -0.0939754886       -0.1678788923
          -0.0792817544        0.0359706254       -0.2904809459
           0.0487735550        0.1079617459       -0.1846361840
           0.0984689856        0.0066843134       -0.0873033682
           0.1699261314       -0.1353569856       -0.3870478323
           0.1080573461       -0.0139829047       -0.2969841792
          -0.0011448816        0.0466846092       -0.0185757376
          -0.2004160303       -0.0878240749        0.2284465956
          -0.3626242757       -0.0770469825        0.2440592230
          -0.1052523283       -0.2393692609        0.1535508513
          -0.0265152647       -0.0834282062        0.2011441576
          -0.1436424039       -0.1493683819        0.0040636263
vibration 19
          -0.0079486714        0.0052053612        0.1116708980
           0.0101754680       -0.0138178686       -0.0363932817
           0.0270380711       -0.1707652834       -0.3548386699
          -0.1592252138        0.0807877553       -0.3405488563
           0.1682269738        0.0541375960       -0.3620814530
           0.0333733340        0.0117403765       -0.0192027833
          -0.0427069592        0.0108117440        0.0403495839
          -0.0780281774        0.0634609035        0.0776722869
          -0.0662890567       -0.0590952253        0.0684103690
          -0.1138916680        0.0239575658        0.0510986309
          -0.0421329466        0.0114949096        0.0408362884
           0.0742804345        0.3382298585       -0.1673376220
           0.1977526981        0.0866471591       -0.3402793936
           0.3340945732        0.1676315136       -0.1270947691
vibration 20
          -0.0150165023        0.0083860064        0.1111818591
           0.0398704867       -0.0130385255       -0.0772651159
           0.0735947188       -0.1593198944       -0.3337018106
          -0.1452366784        0.0965338955       -0.3071721673
           0.1659585476        0.0237189946       -0.3245772604
          -0.0628812429       -0.0123325628        0.0601781806
          -0.1477727940        0.0698483311        0.1741564921
          -0.0711847485        0.0476445165        0.1223629703
           0.0704850819        0.0527583657       -0.0699936309
           0.1233118255        0.0098553320       -0.0836461691
           0.1900248482       -0.0232588567       -0.1427833776
          -0.0476601559       -0.3090899204        0.1639893854
          -0.2011506816       -0.0625439798        0.2983416901
          -0.3263546233       -0.1193347801        0.1460602816
vibration 21
           0.0230573332       -0.0159112639        0.0108960997
          -0.0251928932        0.0111106806       -0.0284440729
          -0.2900248235       -0.0636281630       -0.1230089116
           0.0782840984        0.0009760740        0.1285053093
          -0.1246084627        0.3085085317       -0.0852468270
           0.0005666908       -0.0382443265        0.0101676150
           0.3080822423        0.0811275741        0.1624264964
           0.0851561846       -0.3118131443        0.1462421593
          -0.0132163045        0.0267495306       -0.0035962228
          -0.1936124923        0.1921681376       -0.2266851885
           0.0665308324        0.3317255743        0.1155189761
           0.0480622422        0.1382607983       -0.0347291633
           0.2346258470       -0.1871477400        0.1668692122
          -0.0364511395       -0.2961513542       -0.1191957930
vibration 22
          -0.0242302103        0.0113400350       -0.0073987091
           0.0223052755       -0.0157719120        0.0310885144
           0.3326103274        0.0409768493        0.0767272940
          -0.0450680414        0.0703865912       -0.1486920398
           0.0974745361       -0.2835401447        0.1131635553
           0.0020643200       -0.0380915838        0.0160722432
          -0.3012544981       -0.0854983234       -0.1583292708
          -0.0712464731        0.2989656533       -0.1726607240
          -0.0117803001        0.0250739442        0.0018408362
          -0.1654345637        0.1952443871       -0.2425686335
           0.0697409653        0.3234946885        0.1169644352
           0.0112218957        0.1324533608       -0.1069414752
           0.1923427311       -0.1790929771        0.1835484763
           0.0182195005       -0.3056216810       -0.1565700383
vibration 23
          -0.0176735081       -0.0371158926        0.0017211146
          -0.0052149204       -0.0084452268       -0.0037854426
           0.2212634504       -0.1128744135       -0.2112489814
           0.2621401633        0.4395345732        0.0130008212
          -0.2310661730        0.2034515652        0.1846631669
           0.0073190964        0.0053716063        0.0055133221
           0.0160337321       -0.0011620115        0.0239511529
          -0.0121727122       -0.0044611758        0.0020978468
           0.0237666280        0.0085631964        0.0324667244
          -0.0009382064        0.0079143194        0.0104404820
          -0.0074895063       -0.0270928249        0.0064943664
          -0.2847306046       -0.1632836973       -0.3927369765
          -0.3251744819        0.0996462550        0.1147631154
           0.2645305411       -0.0651034554       -0.1790673011
vibration 24
          -0.0217848230       -0.0345647093       -0.0018332779
          -0.0021746748       -0.0083724462        0.0051530909
           0.2746394895       -0.1010790966       -0.1893960020
           0.2536593063        0.4441303340       -0.0052618085
          -0.2147395127        0.1511698163        0.2077031068
          -0.0033082327        0.0023297221       -0.0092214562
          -0.0224108668       -0.0149151767       -0.0055721440
          -0.0085059495        0.0271557539       -0.0363321762
          -0.0225109824       -0.0142573185       -0.0310372645
           0.0045069054       -0.0315682149        0.0333634682
          -0.0086752120       -0.0193479541       -0.0174962724
           0.2810519234        0.1452211806        0.4020525264
           0.2914593091       -0.0666885691       -0.1508467053
          -0.2582787862        0.1191871293        0.2016112524
vibration 25
          -0.0286777131        0.0139901471        0.0014998386
          -0.0348373883        0.0214474350       -0.0240519589
           0.3310941826        0.0423158473        0.0794000777
          -0.0682804872        0.0626592200       -0.1594246079
           0.1117654278       -0.2938897057        0.0905316701
          -0.0138323856        0.0445977571       -0.0084674041
           0.3117011951        0.0813902082        0.1275047797
           0.0785247454       -0.3050067369        0.1368533443
          -0.0198942355        0.0236698887        0.0080161407
           0.1914265092       -0.1805501233        0.2206271248
          -0.0470177137       -0.3140013364       -0.1386597188
           0.0166991087        0.1563208329       -0.0963633037
           0.2166188388       -0.1782969550        0.1683312447
           0.0153087250       -0.3057416322       -0.1549032624
vibration 26
          -0.0239895870        0.0140034141        0.0013946961
          -0.0481795104        0.0244228204       -0.0080126590
           0.3230418657        0.0417004574        0.0776896014
          -0.0788516564        0.0532945419       -0.1845929564
           0.1190924157       -0.2964813560        0.0889383248
           0.0285057912       -0.0461106975       -0.0065851684
           0.3204603633        0.0693700673        0.0957801986
           0.0954586335       -0.3118989110        0.0888555118
           0.0185520450       -0.0199982399       -0.0054299947
          -0.2273782949        0.1665077075       -0.1867439839
           0.0179899344        0.3036991731        0.1553535341
          -0.0347444387       -0.1785094583        0.1003075551
          -0.2215832148        0.1835225886       -0.1649859168
          -0.0144901228        0.2984083901        0.1512595690
vibration 27
          -0.0001234292        0.0001471662        0.0397477546
           0.0002832706       -0.0000636104       -0.0020107488
           0.0001477573        0.3995973443       -0.1470498415
           0.3479691025       -0.2010313653       -0.1468349931
          -0.3465899398       -0.2003270077       -0.1466476558
          -0.0010572875       -0.0009071443        0.0012087951
          -0.0000792596        0.0025969783       -0.0026738716
          -0.0043219749       -0.0025045349       -0.0036766322
           0.0195154703        0.0212608395       -0.0217169707
          -0.0025190105       -0.0046541123       -0.0013135016
           0.0001815985       -0.0015510071        0.0023358850
          -0.3047404417        0.1952811417        0.1419400816
          -0.1294276952       -0.3077645529       -0.1964585786
           0.2176982384       -0.1229857311        0.2952383772
vibration 28
          -0.0001589606        0.0001568365        0.0361039788
           0.0006686101       -0.0004775939       -0.0017803748
           0.0001694752        0.3631210205       -0.1336707504
           0.3160826238       -0.1826506589       -0.1331323582
          -0.3149015338       -0.1820419824       -0.1332415870
           0.0016295797        0.0005512130       -0.0012690348
          -0.0004788619        0.0091264146       -0.0045676897
          -0.0061318052       -0.0028635976       -0.0036247034
          -0.0215049839       -0.0233464221        0.0239050223
           0.0027839207        0.0071620899        0.0029418566
          -0.0049969745        0.0043591485       -0.0081508599
           0.3351706974       -0.2150181544       -0.1559744834
           0.1424590299        0.3386821402        0.2162151910
          -0.2395718483        0.1353614327       -0.3250027139
vibration 29
          -0.0022389605        0.0013197097       -0.0021991941
           0.0367688916       -0.0202953021        0.0287869349
          -0.0009596459       -0.0153420343        0.0022290471
           0.0091456275       -0.0052563690       -0.0024815442
           0.0123185702        0.0084156076        0.0023420003
           0.0109016790       -0.0487763612        0.0095940910
          -0.0112693059        0.4707377709       -0.1556476552
          -0.4163887894       -0.2282382184       -0.1600693836
          -0.0004914640        0.0032444525       -0.0009023629
           0.1525018607        0.3987191152        0.2619792450
          -0.2947015226        0.1580959929       -0.3658814036
           0.0080476267       -0.0064558994       -0.0032898408
          -0.0045542005       -0.0101810987       -0.0101753415
           0.0107651585       -0.0024151032        0.0109282853
vibration 30
          -0.0017290111        0.0010187985       -0.0020012982
           0.0382513847       -0.0244767513        0.0277101214
          -0.0009538413       -0.0098755929        0.0010537991
           0.0108538489       -0.0062331090       -0.0024153474
           0.0081826783        0.0057541857        0.0010437370
          -0.0152352622        0.0498746889       -0.0106331172
          -0.0058932455        0.4827141289       -0.1638515619
          -0.4028417969       -0.2231009934       -0.1568896089
           0.0002169894       -0.0026871381        0.0008797094
          -0.1505919664       -0.3870298972       -0.2538259544
           0.2986345261       -0.1602647354        0.3811356304
          -0.0092721705        0.0079823525        0.0035923675
           0.0028842102        0.0064467416        0.0071710537
          -0.0070478888        0.0010626619       -0.0069925125
vibration 31
           0.0047249272        0.0130578448       -0.0000968097
          -0.0335496770       -0.0582860567       -0.0003969854
           0.0007958456       -0.1030686490        0.0349644048
           0.0167304732       -0.0071965669       -0.0071930362
          -0.0712437033       -0.0397823146       -0.0274299942
           0.0373780285        0.0198996421        0.0522242984
          -0.0122777889        0.4643052641       -0.1571254777
           0.4034608336        0.2179334278        0.1584008874
          -0.0090467078       -0.0021225824       -0.0103131036
          -0.1469993192       -0.3887463226       -0.2499971368
          -0.2891201057        0.1590243323       -0.3625031228
           0.0142317116       -0.0099574386       -0.0090514526
           0.0266984045        0.0681569805        0.0452315484
           0.0635988244       -0.0338125476        0.0815534961
vibration 32