[Molden Format]

[FREQ]
         -92.6471984000
         255.6974293945
         267.3086021203
         360.2725551838
         383.3786802120
         735.9616461321
         797.9380995998
         826.1746491033
         968.6725182564
         997.5699515613
        1016.8046631664
        1083.6695921837
        1161.6801605347
        1177.7427251863
        1302.8354131653
        1304.6143149853
        1344.0906329949
        1383.9249665092
        1409.1919055786
        1417.3425022508
        1493.0976589432
        1496.8226960761
        1498.9215886340
        1503.3757979206
        1508.3350165637
        1509.3257309425
        3013.2745620795
        3014.7428276983
        3018.0572727206
        3018.7528882467
        3034.3243275891
        3049.8136534481
        3076.5925599745
        3079.7699454056
        3082.0141440249
        3082.5958263922

[FR-COORD]
C          1.5847202789       -0.2044313203       -3.1523832168
C          1.5847202789       -0.2044313203       -0.2590983648
H          1.5847202789        1.7257874366       -3.8948339254
H          3.2434413180       -1.1734674190       -3.9145702163
H         -0.0974124397       -1.1559614712       -3.8902484536
C         -0.7565380417        1.1124443207        0.9002089970
H          1.6709746879       -2.1605630172        0.4139941761
H          3.3160358238        0.7005538250        0.4204144410
C         -2.3555915877       -0.6407463776        2.5556381735
H         -0.1678513763        2.7510998018        2.0166518986
H         -1.9403967599        1.8651646248       -0.6225628078
H         -4.0098690155        0.3331738927        3.3212490285
H         -3.0270005815       -2.2696813552        1.4715692252
H         -1.2550333434       -1.3642755001        4.1500831675

[FR-NORM-COORD]
vibration 1
           0.1125983733        0.1016741312       -0.0285575299
          -0.0842443237       -0.1069350325       -0.0316969618
           0.2638428520        0.1537212259        0.1058045569
           0.1180045192        0.0750579635        0.0171160548
           0.1144261828        0.2389587359       -0.2105323202
          -0.0781036709       -0.0514043909       -0.0853515345
          -0.2658886492       -0.1670256028       -0.1831921034
          -0.0683941994       -0.2804259879        0.1612425838
           0.0397460917        0.0503123248        0.1407056518
          -0.0957896044        0.0928116350       -0.2870074884
          -0.1660199484       -0.2632662786       -0.1219266024
           0.0222061897        0.0576628328        0.0927284182
           0.0800536410       -0.0774762155        0.3074856400
           0.1166693295        0.2456253863        0.1766291779
vibration 2
           0.0405407986       -0.0019997594       -0.0210732863
          -0.0102520447       -0.0102530993       -0.0181529452
          -0.3566301927        0.0011845079       -0.0118826147
           0.2769695905        0.3703188528        0.0194566023
           0.2699865638       -0.3672001410       -0.0720278603
          -0.0089344268       -0.0194569560        0.0013062943
           0.0088380035       -0.0125358367       -0.0268014351
          -0.0258248759        0.0080368742       -0.0017683975
          -0.0273848524        0.0234751854        0.0334281195
           0.0218358661       -0.0268730742       -0.0027699386
          -0.0212033956       -0.0007849844        0.0194481945
           0.1909324499        0.1723239719        0.3163351789
          -0.3670761090        0.2031348900       -0.0264519173
           0.0739765315       -0.2495567405       -0.1600545079
vibration 3
           0.0434972734       -0.0394115566        0.0044020133
          -0.0404174356        0.0553759685       -0.0023850217
           0.4219728830       -0.0704637679       -0.0763377322
          -0.1041156531       -0.3716723915        0.1056561547
          -0.0984278566        0.2323397904       -0.0234353881
          -0.0560632098        0.0420379037       -0.0120099960
          -0.0570843400        0.0676431130        0.0357976147
          -0.0468357517        0.0567062290        0.0146284409
           0.0377884597       -0.0403866104        0.0032748408
          -0.0683484171        0.0405878002       -0.0043513492
          -0.0884771721        0.0334297233        0.0086640065
           0.2316858276       -0.0186829823        0.3924063781
          -0.2473438187        0.1512282288       -0.1068661325
           0.2378975161       -0.3308629277       -0.2661699700
vibration 4
          -0.0782680354        0.0648238267        0.0643236154
           0.1448698667       -0.0203455446        0.0608050441
          -0.0498422086        0.1043437361        0.1645814623
          -0.2454249702       -0.0129447098       -0.1963892384
          -0.2517317450        0.2336316778        0.2397134834
           0.0126779780       -0.1175930720       -0.1064688557
           0.2695561914       -0.0111476934        0.0701500656
           0.0833128199        0.1188504478        0.0286503384
          -0.0368093303        0.0391039979       -0.0074457440
          -0.1505966322        0.0505994768       -0.2680645666
           0.0374850463       -0.3594135033       -0.2443579317
           0.1394245497        0.2491014793        0.1087866139
          -0.3242036961        0.1217216153        0.0456410787
          -0.0136680736       -0.0897818527       -0.0822351948
vibration 5
          -0.0760787685        0.0091348308        0.1231235799
          -0.0607748626       -0.0834005950        0.0946952592
          -0.3154231161        0.0445773403        0.2126183252
          -0.0120532026        0.2080196127        0.0133923120
          -0.0153035151       -0.1219411304        0.1512056106
          -0.0077242791        0.1134691156       -0.0854273220
          -0.3286829955       -0.1094882338        0.0501097937
           0.0095833561       -0.2997326086        0.2006641038
           0.1474600372       -0.0075094983       -0.1228779914
          -0.0437747726        0.1745946505       -0.1593570971
           0.0123283848       -0.0093630345       -0.1603902433
           0.1055102953       -0.2227525438        0.0561108267
           0.2452489651        0.0173446403       -0.2212741108
           0.3082496077       -0.0586319711       -0.2563554412
vibration 6
          -0.0139549021       -0.0065890828        0.0577044267
          -0.0606677324       -0.0454674572       -0.0066234906
           0.0788375852        0.0906023700        0.3056644266
           0.0511781372        0.1026961969        0.0627707119
           0.0262818161        0.1220799795       -0.1930777805
          -0.0203457533       -0.0455671063       -0.0672734127
           0.2732014255        0.0533362703        0.2316346404
          -0.1699527027        0.3124768734       -0.1986925861
           0.0238902757        0.0210721597       -0.0393005801
           0.1963299394       -0.3066663591        0.2056271271
           0.1039453796        0.3641444748        0.0418025778
           0.0982656163        0.0607455430        0.0686845327
          -0.0297824530       -0.1214201490        0.2113961785
           0.2180101596        0.2334902372       -0.0750635093
vibration 7
           0.0221325338        0.0241417999        0.0151519112
           0.0476168969        0.0531003358       -0.0047759889
          -0.1184640243       -0.0846248031       -0.2602556170
          -0.0858115075       -0.1114880308       -0.0458364640
          -0.0567880734       -0.1115936328        0.3610144338
          -0.0303371217       -0.0221857142       -0.0575226344
          -0.2307400931       -0.0464484638       -0.2501305384
           0.0724483510       -0.2183109763        0.2868110588
          -0.0262406414       -0.0217962269       -0.0126868643
           0.0247835462       -0.2470394598        0.2470449043
           0.0958160921        0.3105111429        0.0120157409
           0.0765465056        0.0666525139        0.0995392261
          -0.1180043986       -0.1884790136        0.2989855038
           0.1833808124        0.2347972850       -0.0367601043
vibration 8
          -0.0545750927        0.0424327527        0.1122854199
          -0.1385648739        0.1024975944       -0.0347224508
           0.0972263530       -0.0842201088       -0.2075611638
           0.0570309521       -0.1056990770        0.5404864905
           0.0804673669       -0.1248005261        0.0215934242
           0.1035111615       -0.1427953304       -0.0126199834
          -0.1426765870        0.0346339021       -0.2221688826
          -0.0992125621       -0.0093109662        0.0127849038
           0.1018576898        0.0110782745       -0.0569501179
           0.0419147718       -0.0808059263       -0.0712102927
          -0.0495772842       -0.2066658082        0.0702984183
           0.1941742119        0.3821787990       -0.3269796850
          -0.1216672459        0.0883714222       -0.0351662865
          -0.2032872110       -0.0510101057        0.1227533668
vibration 9
          -0.0165210483        0.0269860210        0.1737478170
           0.0271438286       -0.0038880075       -0.1687615692
           0.0211029595       -0.0213034853        0.0611201238
           0.0211307275       -0.0441159604        0.3409951252
           0.0299481499       -0.0659674279        0.1934564472
           0.0594511320        0.0614899929       -0.1086751192
           0.1145045784       -0.0363314389       -0.2697381043
           0.0556035427        0.0016352559       -0.2458391520
          -0.1124657226       -0.0372952024        0.1172370196
           0.3763781595        0.0518861517       -0.2633028444
           0.0722198568        0.1316899680       -0.0860870977
          -0.2744391574       -0.3865056289        0.2092736135
           0.1251261893       -0.0009616040       -0.0974215476
          -0.0368229831       -0.1931331462       -0.0037720434
vibration 10
           0.0728693596        0.0197728964        0.0047050259
          -0.0322407614       -0.0400161053       -0.0207467946
          -0.1313844808       -0.0299232641       -0.1165951732
          -0.1118343777       -0.0941823864       -0.2433561731
          -0.0824013207       -0.0205194660        0.3942827415
          -0.0709289342       -0.0671352425        0.0184752127
           0.2129676173       -0.0594735043       -0.1014761204
          -0.2937398622        0.2412729018        0.2634854087
           0.0506189714        0.0905192992        0.0045414161
           0.2839069430       -0.1358586344       -0.0727640081
          -0.2096491068        0.0804397287        0.1971686003
          -0.0913907281       -0.1018683469       -0.0656566160
           0.2210162857        0.2167869196       -0.2978746343
          -0.0394214798       -0.1340714856       -0.0402624902
vibration 11
           0.0594909891       -0.0674542935        0.0473329463
          -0.0087164807        0.0428448374       -0.0672451075
          -0.1272172597        0.0704022060        0.3941729029
          -0.0448589547        0.1060155156       -0.3840804325
          -0.1008616451        0.1461274614        0.1386361701
           0.0036845083        0.0555860892       -0.0631470008
          -0.2591814647        0.1169257224        0.1698590588
           0.0098869024       -0.0495908928        0.0065123924
           0.0412104240       -0.0834351710        0.0375995447
           0.0529769826       -0.0159716905        0.0179907249
          -0.2547545233        0.1221365852        0.1655417059
           0.0989677882        0.2533155832       -0.2488862431
          -0.2076070460        0.0188647564        0.0368534574
          -0.3064704191       -0.1436104231        0.2446801382
vibration 12
           0.0066272551        0.0201193842       -0.1209578585
          -0.1273837735        0.0570485855        0.1721307423
          -0.0588736193       -0.0091764979       -0.2040423440
          -0.0407706592       -0.0200956402       -0.1674106158
          -0.0308571063        0.0130741318       -0.0425291112
           0.1740367907       -0.0094308503       -0.1365344475
          -0.1135059314        0.1148654764        0.3247285115
          -0.2620756760        0.1727719147        0.3537079988
          -0.0578773459       -0.0681840104        0.0872100204
           0.4108758853       -0.0264650834       -0.2404483139
           0.3103652644        0.1006350018       -0.1821768662
          -0.1004842832       -0.1363725309        0.0758041129
           0.0132089206       -0.0455064884       -0.0004853755
          -0.0731462272       -0.1584092294        0.0608427465
vibration 13
           0.0773260637       -0.0766247830        0.0370416714
          -0.0965423582        0.1126533775       -0.0880125036
          -0.1553355870        0.0489957875        0.3462327106
          -0.0265701106        0.0687013388       -0.3451274366
          -0.1126169798        0.1685747859        0.1474523260
           0.0954298867       -0.0995087297        0.1056115426
          -0.2240459327        0.1309643056       -0.0157012355
          -0.0328481901       -0.0537493418       -0.0359698682
          -0.0748116886        0.0602038929       -0.0543722895
          -0.0896315209        0.0885915948       -0.0797243990
           0.2169948704       -0.3215651433       -0.1018252593
          -0.0517900789       -0.1694507827        0.2627066420
           0.1646144384       -0.1119242212        0.0605011702
           0.2945368647        0.1898713322       -0.2417406921
vibration 14
           0.0707381904        0.0650171910        0.0176751014
          -0.0922968026       -0.1161288884       -0.0406370795
          -0.1259065317       -0.0311323927       -0.2157784423
          -0.1073160928       -0.1626001222       -0.0745012336
          -0.0136484080       -0.0816190756        0.3708556917
           0.0562239461        0.1248105700        0.0665072521
           0.3407889452       -0.0827878723       -0.0106989185
          -0.2500453546        0.2438209890       -0.1084481784
          -0.0141939232       -0.0913385844       -0.0522369000
          -0.1180206352        0.2889318197       -0.0858246229
           0.0878660925       -0.1609929737       -0.1045636417
           0.1830547000        0.2063536346        0.0066490016
          -0.2391274780       -0.1917827264        0.2595178202
          -0.0013948182        0.1818417459        0.0662822271
vibration 15
           0.0415021861        0.0109347798        0.0053683581
          -0.0562638660       -0.0080099401        0.0009432628
          -0.0793453183        0.0028474356       -0.0161033241
          -0.0373221964       -0.0477220433       -0.0844386503
          -0.0186522689        0.0038172856        0.1373245579
          -0.0225266587       -0.0144835953       -0.0331059959
           0.0209802144       -0.0233094136       -0.0582600264
           0.0528238029       -0.0093627261       -0.2800866125
           0.0465101378        0.0201220853        0.0737682938
          -0.4472844600       -0.1146639399        0.3441064010
           0.4961642115        0.1151758553       -0.3691121365
          -0.0666948282       -0.0142893086       -0.1294476856
           0.0621920082        0.1755563757       -0.1727994548
          -0.0926635475       -0.1900116214        0.0695065274
vibration 16
           0.0322140093        0.0823223217       -0.0041084683
          -0.0050884109       -0.0419007515       -0.0068733206
          -0.0531488838       -0.0101790866       -0.2310534170
          -0.0638632628       -0.1246491153        0.0512364053
           0.0355732507       -0.0961880188        0.2172527556
           0.0254305363       -0.0371581902       -0.0241626550
          -0.2777480768        0.1624510123        0.6142882406
           0.1927435471       -0.0988404192       -0.4249132387
          -0.0188461009        0.0290476218       -0.0039840716
          -0.0446174854       -0.0782958023        0.0682396812
          -0.2616906672       -0.0584654241        0.1891644735
          -0.0456111529       -0.0705483977        0.0559745372
           0.0640307396       -0.0061011066       -0.0095861146
           0.0529523941       -0.0039052047       -0.0647067912
vibration 17
          -0.0398949728        0.0025045175       -0.0041446312
           0.0404882515       -0.0451747175       -0.0936626231
           0.0727803520        0.0287133839        0.0847527527
           0.0256178295       -0.0055244353        0.1541425895
           0.0101128589       -0.0605852933       -0.0254211943
           0.0955026622        0.0143198271       -0.0377043938
          -0.0806672095        0.0473800696        0.1848465310
          -0.3359870827        0.1987216350        0.5286546692
          -0.0088980919        0.0353655626        0.0095830971
          -0.5209651603       -0.0067075567        0.3267677021
          -0.1233966654       -0.0364140420        0.1053369880
          -0.0735023034       -0.1378938838        0.0985117573
           0.0463105966       -0.0176245189        0.0464413188
          -0.0585530661       -0.0935940195       -0.0046234323
vibration 18
          -0.0287016504        0.0249474769       -0.0018363049
           0.0576517961       -0.0160111410       -0.1088161262
           0.1013837998        0.0203894423       -0.0117481448
           0.0223208509        0.0100185826        0.1265039056
           0.0176109620       -0.0912689715        0.0564322335
          -0.0992224407       -0.0221598073        0.0856829183
          -0.2744859894        0.1723348629        0.4779100264
          -0.1177954176        0.0348051520        0.2724784362
           0.0302128467       -0.0243346447       -0.0011647451
           0.2692587941        0.0586078808       -0.2289763563
           0.4815716180        0.0563450771       -0.3249540455
           0.0605712578        0.0848846097       -0.0728051406
          -0.0581562707        0.0519635891       -0.0527632100
          -0.0252986165        0.0491178289        0.0690984269
vibration 19
           0.0083878260       -0.0062150519       -0.1319192254
          -0.0098815758        0.0090064763        0.0281543861
          -0.0340657050        0.2112508128        0.4754394457
           0.2049829060       -0.1082509501        0.4726298827
          -0.2050835142       -0.0632676820        0.4742897439
          -0.0111590130       -0.0059014907        0.0043160198
           0.0235236421       -0.0208306662       -0.0614228853
           0.0522335805       -0.0245646710       -0.0788380319
           0.0318359228        0.0278429641       -0.0316935755
           0.0430986037        0.0184592054       -0.0601526092
           0.0092385423        0.0426590046        0.0062691392
          -0.0377571149       -0.1675982491        0.0844939581
          -0.1048910033       -0.0730214282        0.1889822868
          -0.1796905371       -0.1093257529        0.0597990998
vibration 20
          -0.0029352179       -0.0000941636       -0.0518988178
           0.0007643838       -0.0004385505       -0.0036244684
          -0.0327834693        0.0959682916        0.2214313317
           0.0651632602       -0.0807937691        0.2200713496
          -0.0643618619       -0.0392027481        0.1575488670
           0.0169874522        0.0085358759       -0.0131219184
           0.0740661925        0.0018846509        0.0185593885
          -0.0003737377       -0.0423102867        0.0653425852
          -0.0758226448       -0.0734825911        0.0717104984
          -0.0512642114        0.0016320740        0.0384113948
          -0.0726003255        0.0017065567        0.0473523079
           0.1182712591        0.4504631953       -0.2203095807
           0.2608197830        0.1445358723       -0.4297000215
           0.4294514195        0.2457685092       -0.1552055497
vibration 21
           0.0010718699       -0.0205911751        0.0069825926
          -0.0229557109       -0.0026819330       -0.0188874186
          -0.0113206868       -0.0909495914       -0.2062991765
           0.1645473453        0.2282769743        0.0595629588
          -0.1645172813        0.2362569770        0.0680343015
          -0.0012939556       -0.0361225721        0.0068375192
           0.2726611604        0.0552187210        0.1478264640
           0.0798771860       -0.2555883098        0.0886345751
          -0.0154130998        0.0182446359        0.0024823423
          -0.2185804835        0.2371683746       -0.2497865819
           0.0642037263        0.3900358234        0.1453937833
           0.0656426762        0.1734348822       -0.0545809252
           0.2318290202       -0.1909815043        0.1545264674
          -0.0248474717       -0.2928939121       -0.1225331368
vibration 22
           0.0227279101       -0.0297396405        0.0019214236
          -0.0097761532       -0.0022917955       -0.0201007917
          -0.3105558765       -0.1015674408       -0.2270607939
           0.2001496730        0.1280010328        0.2335734918
          -0.2452743801        0.4591993380       -0.0277491241
           0.0042600162        0.0134391676       -0.0065957255
           0.1728013145        0.0481037728        0.1304069107
           0.0353278680       -0.1642188588        0.1058337821
           0.0250719115       -0.0174695027        0.0017319096
           0.0489985979       -0.0937386434        0.1140953322
          -0.0409703701       -0.1423320872       -0.0396186512
          -0.1057894659       -0.2182997738        0.0100257968
          -0.2960689546        0.2204267325       -0.1471461951
           0.0379170054        0.2938072584        0.1220106943
vibration 23
           0.0175744426        0.0075654057        0.0019918763
           0.0010381706        0.0077913821       -0.0066943351
          -0.2545820713        0.0174208554        0.0309323504
          -0.0687144287       -0.1937384263        0.0860021038
           0.0307145820        0.0772289731       -0.1447759785
          -0.0193882508        0.0065697735       -0.0154306816
           0.0851043329        0.0234255663        0.0400640048
           0.0354220494       -0.0949966594        0.0529918650
          -0.0211741842       -0.0061120284       -0.0370877488
           0.0461238661       -0.0915383407        0.0840943964
           0.0144782948       -0.0600953406       -0.0714978968
           0.3357936286        0.1761347943        0.5038789691
           0.4113485900       -0.0860892729       -0.1540247667
          -0.3743360761        0.0439469169        0.2536542771
vibration 24
          -0.0373327598       -0.0257617199       -0.0035473795
          -0.0114988236       -0.0087099702        0.0104105103
           0.5279741882       -0.0713401841       -0.1481361694
           0.2255305028        0.5073618344       -0.1326056518
          -0.1483312031       -0.0551469848        0.3452268404
           0.0061004638        0.0090051003       -0.0117289828
          -0.0648441615       -0.0239023959       -0.0339381519
          -0.0159719619        0.0686664051       -0.0986249726
          -0.0097635945       -0.0158995857       -0.0136949771
           0.0153654922       -0.0731928577        0.0939490921
          -0.0246020878       -0.0937911599       -0.0343681218
           0.1266215218        0.0259086620        0.2383594478
           0.1055756732        0.0466232768       -0.1584604768
          -0.1222723971        0.1613533688        0.1495987758
vibration 25
          -0.0179544486        0.0147939299       -0.0023091367
          -0.0554058555        0.0342744010       -0.0319987521
           0.2161078728        0.0481807354        0.0997174560
          -0.0859963358       -0.0119755289       -0.1280216947
           0.1092885243       -0.2458971040        0.0519226108
          -0.0097498509        0.0364562639       -0.0094801079
           0.5035877412        0.1169686624        0.1963360655
           0.1410943841       -0.4828117932        0.2179563160
           0.0055296517        0.0154265404        0.0040120759
           0.1532406409       -0.1816553584        0.2016343912
          -0.0473579919       -0.2802568327       -0.1194204113
          -0.0548082883       -0.0206498672       -0.0792496331
          -0.0259931098       -0.0345834724        0.0924124916
           0.0145743241       -0.1093273134       -0.0596825167
vibration 26
          -0.0077091231        0.0187362999        0.0012501144
          -0.0230602457        0.0157993717       -0.0019876256
           0.1135273043        0.0551453923        0.1207623312
          -0.1305699519       -0.1063019073       -0.1266046681
           0.1420822293       -0.2328088735       -0.0148835068
           0.0213711119       -0.0565979774       -0.0028630147
           0.1798020879        0.0342461605        0.0394219447
           0.0702911577       -0.1812861583        0.0443522786
           0.0200680224       -0.0260772086       -0.0114499209
          -0.2487185114        0.2219434051       -0.2428559095
           0.0339849460        0.3825250109        0.1853915782
          -0.0127484594       -0.2053542401        0.1802739900
          -0.2158840038        0.2275107976       -0.2251447278
          -0.0588098681        0.3775693640        0.2184897802
vibration 27
           0.0089809214       -0.0023108771        0.0286949983
          -0.0233607674        0.0118510971       -0.0177911362
           0.0031659750        0.3326221418       -0.1169539633
           0.2093520467       -0.1206844386       -0.0875677131
          -0.3215326571       -0.1853976366       -0.1324714703
          -0.0027757491        0.0243541055       -0.0013901845
           0.0009591007       -0.2971353177        0.0986389556
           0.2780902505        0.1578644448        0.1081134821
          -0.0108271028       -0.0232307586        0.0126185601
          -0.0863916949       -0.2169895524       -0.1547353504
           0.1251128719       -0.0713873201        0.1662775943
           0.1943667001       -0.1227405660       -0.0879821430
           0.1177092308        0.2864605729        0.2024530932
          -0.1876466332        0.1104184082       -0.2592972471
vibration 28
           0.0007692980        0.0027522249        0.0223003788
           0.0206684543       -0.0314099889        0.0207768970
          -0.0001171260        0.2225036727       -0.0767713440
           0.2221568200       -0.1284593385       -0.0900147543
          -0.2293285385       -0.1284829448       -0.0908431011
          -0.0189394365        0.0296487039       -0.0204185631
          -0.0082951474        0.5082049931       -0.1707762590
          -0.2331989690       -0.1370451445       -0.0884814508
           0.0110092422        0.0094954302       -0.0060214904
          -0.0743475112       -0.1769871632       -0.1334587746
           0.2915985235       -0.1748618659        0.3844486997
          -0.1522849748        0.0994213173        0.0683657559
          -0.0623091753       -0.1599676216       -0.1133118020
           0.0852939209       -0.0491853184        0.1127464739
vibration 29
          -0.0061432141        0.0049168646       -0.0058054162
           0.0274927720       -0.0223590528        0.0224509957
          -0.0023198168       -0.1018776738        0.0358833547
          -0.0011935727        0.0008300884        0.0025313419
           0.0747436601        0.0448241035        0.0314522010
          -0.0004130888       -0.0123462914       -0.0031990831
          -0.0078154893        0.4455208816       -0.1471404036
          -0.3141496676       -0.1792947463       -0.1195864415
          -0.0204392065       -0.0238160334        0.0208111133
           0.0490925197        0.1221465159        0.0885945192
          -0.0441367028        0.0224258295       -0.0557678553
           0.3406956219       -0.2124322699       -0.1539124578
           0.1415738994        0.3499475546        0.2454102224
          -0.2424112722        0.1461694704       -0.3353639707
vibration 30
          -0.0003483963       -0.0025032933        0.0331319341
           0.0128563255        0.0086589153        0.0043495307
           0.0012841944        0.3862662338       -0.1386218961
           0.3065008558       -0.1799425596       -0.1311123892
          -0.3052141311       -0.1744398434       -0.1243169964
           0.0135721477       -0.0447668589        0.0111776459
           0.0043213170       -0.0162625624        0.0104975478
          -0.1566162405       -0.0864991527       -0.0604526999
          -0.0024083818        0.0106955793       -0.0025406930
           0.1403273243        0.3532680058        0.2569881451
          -0.3008919392        0.1747406970       -0.3897850976
           0.0025835517       -0.0031907630       -0.0011551788
          -0.0375455448       -0.0849652638       -0.0604517626
           0.0633957925       -0.0365878380        0.0892862291
vibration 31
           0.0079641924        0.0200603785        0.0015064924
          -0.0295100233       -0.0554477492        0.0013075975
           0.0025376443       -0.1519856214        0.0565089293
           0.0377540302       -0.0144584890       -0.0155154252
          -0.1406699990       -0.0755084136       -0.0608848557
           0.0337251345        0.0116262751        0.0494960972
          -0.0206959572        0.4689888653       -0.1636887768
           0.3802642182        0.1968459878        0.1519219401
          -0.0122625899       -0.0007028041       -0.0165209085
          -0.1175949540       -0.3309729635       -0.2201340045
          -0.2881918890        0.1844573865       -0.3733794149
           0.0033345396       -0.0042389497       -0.0081683423
           0.0342119634        0.0882190257        0.0555895120
           0.1100420804       -0.0700593660        0.1516136294
vibration 32