
    -----------------------------------------------------------------------
          Psi4: An Open-Source Ab Initio Electronic Structure Package
                               Psi4 1.9.1 release

                         Git: Rev {} zzzzzzz 


    D. G. A. Smith, L. A. Burns, A. C. Simmonett, R. M. Parrish,
    M. C. Schieber, R. Galvelis, P. Kraus, H. Kruse, R. Di Remigio,
    A. Alenaizan, A. M. James, S. Lehtola, J. P. Misiewicz, M. Scheurer,
    R. A. Shaw, J. B. Schriber, Y. Xie, Z. L. Glick, D. A. Sirianni,
    J. S. O'Brien, J. M. Waldrop, A. Kumar, E. G. Hohenstein,
    B. P. Pritchard, B. R. Brooks, H. F. Schaefer III, A. Yu. Sokolov,
    K. Patkowski, A. E. DePrince III, U. Bozkaya, R. A. King,
    F. A. Evangelista, J. M. Turney, T. D. Crawford, C. D. Sherrill,
    J. Chem. Phys. 152(18) 184108 (2020). https://doi.org/10.1063/5.0006002

                            Additional Code Authors
    E. T. Seidl, C. L. Janssen, E. F. Valeev, M. L. Leininger,
    J. F. Gonthier, R. M. Richard, H. R. McAlexander, M. Saitow, X. Wang,
    P. Verma, M. H. Lechner, A. Jiang, S. Behnle, A. G. Heide,
    M. F. Herbst, and D. L. Poole

             Previous Authors, Complete List of Code Contributors,
                       and Citations for Specific Modules
    https://github.com/psi4/psi4/blob/master/codemeta.json
    https://github.com/psi4/psi4/graphs/contributors
    http://psicode.org/psi4manual/master/introduction.html#citing-psifour

    -----------------------------------------------------------------------


    Psi4 started on: Monday, 06 May 2024 06:09PM

    Process ID: 26831
    Host:       Barrys-MacBook-Pro.local
    PSIDATADIR: /Users/blink/psi4conda/share/psi4
    Memory:     953.7 MiB
    Threads:    4
      Threads set to 4 by Python driver.

Scratch directory: /tmp/
gradient() will perform analytic gradient computation.
   => Libint2 <=

    Primary   basis highest AM E, G, H:  5, 4, 3
    Auxiliary basis highest AM E, G, H:  6, 5, 4
    Onebody   basis highest AM E, G, H:  6, 5, 4
    Solid Harmonics ordering:            Gaussian

*** tstart() called on Barrys-MacBook-Pro.local
*** at Mon May  6 19:10:14 2024

   => Loading Basis Set <=

    Name: STO-3G
    Role: ORBITAL
    Keyword: BASIS
    atoms 1-2, 6, 9       entry C          line    61 file /Users/blink/psi4conda/share/psi4/basis/sto-3g.gbs 
    atoms 3-5, 7-8, 10-14 entry H          line    19 file /Users/blink/psi4conda/share/psi4/basis/sto-3g.gbs 


         ---------------------------------------------------------
                                   SCF
               by Justin Turney, Rob Parrish, Andy Simmonett
                          and Daniel G. A. Smith
                              RHF Reference
                        4 Threads,    953 MiB Core
         ---------------------------------------------------------

  ==> Geometry <==

    Molecular point group: c1
    Full point group: C1

    Geometry (in Angstrom), charge = 0, multiplicity = 1:

       Center              X                  Y                   Z               Mass       
    ------------   -----------------  -----------------  -----------------  -----------------
         C            0.630119456690    -0.326933635967    -1.742833044354    12.000000000000
         C            0.630119456690    -0.326933635967    -0.242833044354    12.000000000000
         H            0.630119456690     0.618584939632    -2.068401198811     1.007825032230
         H            1.448962562909    -0.799692923767    -2.068401198811     1.007825032230
         H           -0.184193948178    -0.797077699472    -2.083212594567     1.007825032230
         C           -0.598145202638     0.382205295732     0.245519187332    12.000000000000
         H            0.630119456690    -1.272452211566     0.082735110103     1.007825032230
         H            1.448962562909     0.145825651833     0.082735110103     1.007825032230
         C           -0.661472411751     0.276033518728     1.740416246782    12.000000000000
         H           -0.548934498328     1.343291993722    -0.026309187803     1.007825032230
         H           -1.404905484185    -0.046354111094    -0.161266607577     1.007825032230
         H           -0.641020190084     1.189117797333     2.147673913123     1.007825032230
         H           -1.506282080474    -0.184105287607     2.013489318570     1.007825032230
         H            0.119774461397    -0.249189356946     2.077750286074     1.007825032230

  Running in c1 symmetry.

  Rotational constants: A =      0.84095  B =      0.13295  C =      0.12399 [cm^-1]
  Rotational constants: A =  25211.01683  B =   3985.77088  C =   3717.23227 [MHz]
  Nuclear repulsion =  137.375179355794302

  Charge       = 0
  Multiplicity = 1
  Electrons    = 34
  Nalpha       = 17
  Nbeta        = 17

  ==> Algorithm <==

  SCF Algorithm Type is DIRECT.
  DIIS enabled.
  MOM disabled.
  Fractional occupation disabled.
  Guess Type is SAD.
  Energy threshold   = 1.00e-08
  Density threshold  = 1.00e-08
  Integral threshold = 1.00e-08

  ==> Primary Basis <==

  -AO BASIS SET INFORMATION:
    Name                   = STO-3G
    Blend                  = STO-3G
    Total number of shells = 22
    Number of primitives   = 66
    Number of AO           = 30
    Number of SO           = 30
    Maximum AM             = 1
    Spherical Harmonics    = TRUE

  -Contraction Scheme:
    Atom   Type   All Primitives // Shells:
   ------ ------ --------------------------
       1     C     6s 3p // 2s 1p 
       2     C     6s 3p // 2s 1p 
       3     H     3s // 1s 
       4     H     3s // 1s 
       5     H     3s // 1s 
       6     C     6s 3p // 2s 1p 
       7     H     3s // 1s 
       8     H     3s // 1s 
       9     C     6s 3p // 2s 1p 
      10     H     3s // 1s 
      11     H     3s // 1s 
      12     H     3s // 1s 
      13     H     3s // 1s 
      14     H     3s // 1s 

   => Loading Basis Set <=

    Name: (STO-3G AUX)
    Role: JKFIT
    Keyword: DF_BASIS_SCF
    atoms 1-2, 6, 9       entry C          line   198 file /Users/blink/psi4conda/share/psi4/basis/def2-universal-jkfit.gbs 
    atoms 3-5, 7-8, 10-14 entry H          line    18 file /Users/blink/psi4conda/share/psi4/basis/def2-universal-jkfit.gbs 

  Starting with a DF guess...

  ==> Integral Setup <==

  DFHelper Memory: AOs need 0.005 GiB; user supplied 0.698 GiB. 
  Using in-core AOs.

  ==> MemDFJK: Density-Fitted J/K Matrices <==

    J tasked:                   Yes
    K tasked:                   Yes
    wK tasked:                   No
    OpenMP threads:               4
    Memory [MiB]:               715
    Algorithm:                 Core
    Schwarz Cutoff:           1E-08
    Mask sparsity (%):       0.6667
    Fitting Condition:        1E-10

   => Auxiliary Basis Set <=

  -AO BASIS SET INFORMATION:
    Name                   = (STO-3G AUX)
    Blend                  = DEF2-UNIVERSAL-JKFIT
    Total number of shells = 160
    Number of primitives   = 212
    Number of AO           = 556
    Number of SO           = 480
    Maximum AM             = 4
    Spherical Harmonics    = TRUE

  -Contraction Scheme:
    Atom   Type   All Primitives // Shells:
   ------ ------ --------------------------
       1     C     14s 10p 6d 2f 1g // 10s 8p 5d 1f 1g 
       2     C     14s 10p 6d 2f 1g // 10s 8p 5d 1f 1g 
       3     H     4s 2p 2d // 2s 2p 2d 
       4     H     4s 2p 2d // 2s 2p 2d 
       5     H     4s 2p 2d // 2s 2p 2d 
       6     C     14s 10p 6d 2f 1g // 10s 8p 5d 1f 1g 
       7     H     4s 2p 2d // 2s 2p 2d 
       8     H     4s 2p 2d // 2s 2p 2d 
       9     C     14s 10p 6d 2f 1g // 10s 8p 5d 1f 1g 
      10     H     4s 2p 2d // 2s 2p 2d 
      11     H     4s 2p 2d // 2s 2p 2d 
      12     H     4s 2p 2d // 2s 2p 2d 
      13     H     4s 2p 2d // 2s 2p 2d 
      14     H     4s 2p 2d // 2s 2p 2d 

  Minimum eigenvalue in the overlap matrix is 1.6099708973E-01.
  Reciprocal condition number of the overlap matrix is 5.7006384282E-02.
    Using symmetric orthogonalization.

  ==> Pre-Iterations <==

  SCF Guess: Superposition of Atomic Densities via on-the-fly atomic UHF (no occupation information).

   -------------------------
    Irrep   Nso     Nmo    
   -------------------------
     A         30      30 
   -------------------------
    Total      30      30
   -------------------------

  ==> Iterations <==

                           Total Energy        Delta E     RMS |[F,P]|

   @DF-RHF iter SAD:  -152.37474217489458   -1.52375e+02   0.00000e+00 
   @DF-RHF iter   1:  -155.37616355870188   -3.00142e+00   2.97551e-03 DIIS/ADIIS
   @DF-RHF iter   2:  -155.38146315201442   -5.29959e-03   5.72579e-04 DIIS/ADIIS
   @DF-RHF iter   3:  -155.38170614132801   -2.42989e-04   9.28422e-05 DIIS
   @DF-RHF iter   4:  -155.38171164656904   -5.50524e-06   6.25154e-06 DIIS
   @DF-RHF iter   5:  -155.38171167394327   -2.73742e-08   9.26709e-07 DIIS
   @DF-RHF iter   6:  -155.38171167451694   -5.73664e-10   1.21810e-07 DIIS
   @DF-RHF iter   7:  -155.38171167453029   -1.33582e-11   2.08961e-08 DIIS
   @DF-RHF iter   8:  -155.38171167453092   -6.25278e-13   3.05118e-09 DIIS

  DF guess converged.

  ==> DirectJK: Integral-Direct J/K Matrices <==

    J tasked:                  Yes
    K tasked:                  Yes
    wK tasked:                  No
    Integrals threads:           4
    Screening Type:           CSAM
    Screening Cutoff:        1E-08
    Incremental Fock:           No

   @RHF iter   9:  -155.38120505043184   -1.55381e+02   4.22634e-06 DIIS
   @RHF iter  10:  -155.38120505741375   -6.98191e-09   5.72920e-07 DIIS
   @RHF iter  11:  -155.38120505756291   -1.49157e-10   9.13254e-08 DIIS
   @RHF iter  12:  -155.38120505756888   -5.96856e-12   1.48021e-08 DIIS
   @RHF iter  13:  -155.38120505756905   -1.70530e-13   8.65158e-10 DIIS
  Energy and wave function converged.


  ==> Post-Iterations <==

    Orbital Energies [Eh]
    ---------------------

    Doubly Occupied:                                                      

       1A    -11.033914     2A    -11.032615     3A    -11.024739  
       4A    -11.023412     5A     -1.072099     6A     -0.981628  
       7A     -0.862175     8A     -0.800994     9A     -0.657284  
      10A     -0.592591    11A     -0.583987    12A     -0.570508  
      13A     -0.508786    14A     -0.503867    15A     -0.462260  
      16A     -0.457206    17A     -0.419940  

    Virtual:                                                              

      18A      0.654796    19A      0.666016    20A      0.695283  
      21A      0.735452    22A      0.760281    23A      0.807297  
      24A      0.842693    25A      0.853454    26A      0.868775  
      27A      0.897819    28A      0.920490    29A      0.938475  
      30A      0.964304  

    Final Occupation by Irrep:
              A 
    DOCC [    17 ]
    NA   [    17 ]
    NB   [    17 ]

  @RHF Final Energy:  -155.38120505756905

   => Energetics <=

    Nuclear Repulsion Energy =            137.3751793557943017
    One-Electron Energy =                -480.3367568824633622
    Two-Electron Energy =                 187.5803724691000411
    Total Energy =                       -155.3812050575690478

Computation Completed


Properties will be evaluated at   0.000000,   0.000000,   0.000000 [a0]

Properties computed using the SCF density matrix


 Multipole Moments:

 ------------------------------------------------------------------------------------
     Multipole            Electronic (a.u.)      Nuclear  (a.u.)        Total (a.u.)
 ------------------------------------------------------------------------------------

 L = 1.  Multiply by 2.5417464519 to convert [e a0] to [Debye]
 Dipole X            :          0.0099210           -0.0069351            0.0029859
 Dipole Y            :          0.0505651           -0.0487964            0.0017687
 Dipole Z            :          0.0082636           -0.0030065            0.0052571
 Magnitude           :                                                    0.0062993

 ------------------------------------------------------------------------------------

*** tstop() called on Barrys-MacBook-Pro.local at Mon May  6 19:10:16 2024
Module time:
	user time   =       4.05 seconds =       0.07 minutes
	system time =       0.16 seconds =       0.00 minutes
	total time  =          2 seconds =       0.03 minutes
Total time:
	user time   =       4.05 seconds =       0.07 minutes
	system time =       0.16 seconds =       0.00 minutes
	total time  =          2 seconds =       0.03 minutes

*** tstart() called on Barrys-MacBook-Pro.local
*** at Mon May  6 19:10:16 2024


         ------------------------------------------------------------
                                   SCF GRAD                          
                          Rob Parrish, Justin Turney,                
                       Andy Simmonett, and Alex Sokolov              
         ------------------------------------------------------------

  ==> Geometry <==

    Molecular point group: c1
    Full point group: C1

    Geometry (in Angstrom), charge = 0, multiplicity = 1:

       Center              X                  Y                   Z               Mass       
    ------------   -----------------  -----------------  -----------------  -----------------
         C            0.630119456690    -0.326933635967    -1.742833044354    12.000000000000
         C            0.630119456690    -0.326933635967    -0.242833044354    12.000000000000
         H            0.630119456690     0.618584939632    -2.068401198811     1.007825032230
         H            1.448962562909    -0.799692923767    -2.068401198811     1.007825032230
         H           -0.184193948178    -0.797077699472    -2.083212594567     1.007825032230
         C           -0.598145202638     0.382205295732     0.245519187332    12.000000000000
         H            0.630119456690    -1.272452211566     0.082735110103     1.007825032230
         H            1.448962562909     0.145825651833     0.082735110103     1.007825032230
         C           -0.661472411751     0.276033518728     1.740416246782    12.000000000000
         H           -0.548934498328     1.343291993722    -0.026309187803     1.007825032230
         H           -1.404905484185    -0.046354111094    -0.161266607577     1.007825032230
         H           -0.641020190084     1.189117797333     2.147673913123     1.007825032230
         H           -1.506282080474    -0.184105287607     2.013489318570     1.007825032230
         H            0.119774461397    -0.249189356946     2.077750286074     1.007825032230

  Nuclear repulsion =  137.375179355794302

  ==> Basis Set <==

  -AO BASIS SET INFORMATION:
    Name                   = STO-3G
    Blend                  = STO-3G
    Total number of shells = 22
    Number of primitives   = 66
    Number of AO           = 30
    Number of SO           = 30
    Maximum AM             = 1
    Spherical Harmonics    = TRUE

  -Contraction Scheme:
    Atom   Type   All Primitives // Shells:
   ------ ------ --------------------------
       1     C     6s 3p // 2s 1p 
       2     C     6s 3p // 2s 1p 
       3     H     3s // 1s 
       4     H     3s // 1s 
       5     H     3s // 1s 
       6     C     6s 3p // 2s 1p 
       7     H     3s // 1s 
       8     H     3s // 1s 
       9     C     6s 3p // 2s 1p 
      10     H     3s // 1s 
      11     H     3s // 1s 
      12     H     3s // 1s 
      13     H     3s // 1s 
      14     H     3s // 1s 

  ==> DirectJKGrad: Integral-Direct SCF Gradients <==

    Gradient:                    1
    J tasked:                  Yes
    K tasked:                  Yes
    wK tasked:                  No
    Integrals threads:           4
    Schwarz Cutoff:          1E-08


  -Nuclear Gradient:
     Atom            X                  Y                   Z
    ------   -----------------  -----------------  -----------------
       1       -1.313623542680     0.728154049546     6.127858836369
       2       -4.059421743668     2.223155736919    -1.003445516437
       3       -0.186786222260    -2.014069545642     1.382403782833
       4       -1.889118519017     1.086768995202     1.226418528523
       5        1.633683544830     1.153968498035     1.409669836272
       6        3.881503752075    -2.605734929941     0.942885911857
       7       -0.399730521855     2.472600416027    -0.758321754024
       8       -2.337265958383    -0.917229420518    -0.779021122417
       9        1.524340952326    -0.390874322840    -6.052974584949
      10        0.263122833503    -2.530812156485     0.638403379999
      11        2.313289004331     0.764018755498     0.941220003018
      12        0.093769491704    -2.036478840700    -1.429979100271
      13        1.989233486706     0.970099692708    -1.138019589061
      14       -1.512996557613     1.096433072190    -1.507098611714


  -Core Hamiltonian Gradient:
     Atom            X                  Y                   Z
    ------   -----------------  -----------------  -----------------
       1        2.570357002186    -1.460633659146   -11.689853384244
       2        7.585350344330    -4.111338149641     1.831722853759
       3        0.338398110950     5.011114638051    -2.918645875028
       4        4.503123774361    -2.607986659028    -2.575708406396
       5       -4.120721931994    -2.772909963775    -3.036443417931
       6       -7.349192796337     4.910855156003    -1.449126020083
       7        0.714446662129    -6.000930234587     1.839474140731
       8        5.540118152351     2.435433943582     1.856502926151
       9       -2.987663046630     0.807037807251    11.344485447069
      10       -0.341202365473     6.128080872436    -1.541467695889
      11       -5.471240932225    -2.122915433979    -2.333266647450
      12       -0.149810427374     4.935859278831     3.104274136720
      13       -4.758627935201    -2.374165266518     2.396661805812
      14        3.926665388928    -2.777502329478     3.171390136779


  -Overlap Gradient:
     Atom            X                  Y                   Z
    ------   -----------------  -----------------  -----------------
       1        0.004219975028    -0.000955733099    -0.038469954545
       2        0.031382440713    -0.018337649676     0.014016446303
       3        0.000825727553    -0.143976626417     0.046368163182
       4       -0.124086773402     0.072079339166     0.046882678098
       5        0.124127674361     0.071043296449     0.050017577040
       6       -0.024462021191     0.017988528148    -0.024393071460
       7        0.001130992329     0.143966555716    -0.048997986163
       8       -0.124344679237    -0.073160399902    -0.048172281310
       9       -0.005321071452    -0.000991597715     0.047815908355
      10       -0.010145123373    -0.146693875918     0.040760285576
      11        0.121801393983     0.067560810359     0.062247285537
      12       -0.003208446751    -0.138601494782    -0.060393404042
      13        0.128097012576     0.069782867712    -0.040116794232
      14       -0.120017101138     0.080295979960    -0.047564852340


  -Coulomb Gradient:
     Atom            X                  Y                   Z
    ------   -----------------  -----------------  -----------------
       1       -1.258498009756     0.734430053823     5.480643656255
       2       -3.456247763548     1.847821283588    -0.771622000092
       3       -0.151871712269    -3.226138766143     1.618251503899
       4       -2.812837839884     1.635923701986     1.430931966204
       5        2.684218055299     1.733058900903     1.712050489046
       6        3.405854481888    -2.261376202160     0.444278259518
       7       -0.316696244246     3.757907800472    -1.161114454413
       8       -3.402584473142    -1.631156220896    -1.157935397985
       9        1.462017174179    -0.424044910998    -5.204634249795
      10        0.068587969927    -3.830346666335     0.970758707692
      11        3.354635465158     1.460542915579     1.491925774930
      12        0.051147384494    -3.120459725958    -1.775869145062
      13        2.974214889777     1.515817846474    -1.327669846563
      14       -2.601939377877     1.808019989667    -1.749995263633


  -Exchange Gradient:
     Atom            X                  Y                   Z
    ------   -----------------  -----------------  -----------------
       1       -0.010466681287     0.002431879635     0.053645837633
       2       -0.040408462501     0.024699400011    -0.008394518903
       3       -0.001275882273     0.286377958758    -0.092904089542
       4        0.247185896997    -0.143968761208    -0.091332840621
       5       -0.246149412018    -0.141658898889    -0.100785755167
       6        0.027847333513    -0.021101995361     0.033286501656
       7       -0.001332634754    -0.284138637428     0.094267269288
       8        0.245299627067     0.143748404399     0.093364523125
       9        0.011757413486    -0.000792962136    -0.076641517686
      10        0.019276209498     0.289178928285    -0.078945397972
      11       -0.240933969125    -0.132647322812    -0.120984003020
      12        0.006586634773     0.276582081638     0.119062167619
      13       -0.255348210888    -0.139182298277     0.078663695863
      14        0.237962137512    -0.159527776615     0.097698127727


  -Total Gradient:
     Atom            X                  Y                   Z
    ------   -----------------  -----------------  -----------------
       1       -0.008011256509     0.003426590758    -0.066175008533
       2        0.060654815327    -0.033999378799     0.062277264631
       3       -0.000709978299    -0.086692341394     0.035473485345
       4       -0.075733460945     0.042816616119     0.037191925808
       5        0.075157930478     0.043501832724     0.034508729260
       6       -0.058449250052     0.040630556688    -0.053068418513
       7       -0.002181746397     0.089405900200    -0.034692784580
       8       -0.078777331344    -0.042363693335    -0.035261352435
       9        0.005131421909    -0.009665986439     0.058051002994
      10       -0.000360475917    -0.090592898018     0.029509279406
      11        0.077550962122     0.036559724644     0.041142413015
      12       -0.001515363155    -0.083098700971    -0.042905345036
      13        0.077569242970     0.042352842100    -0.030480728181
      14       -0.070325510188     0.047718935724    -0.035570463180


*** tstop() called on Barrys-MacBook-Pro.local at Mon May  6 19:10:16 2024
Module time:
	user time   =       0.48 seconds =       0.01 minutes
	system time =       0.01 seconds =       0.00 minutes
	total time  =          0 seconds =       0.00 minutes
Total time:
	user time   =       4.53 seconds =       0.08 minutes
	system time =       0.17 seconds =       0.00 minutes
	total time  =          2 seconds =       0.03 minutes

    			-----------------------------------------

    			 OPTKING 3.0: for geometry optimizations 

    			     By R.A. King, Bethel University     

    			        with contributions from          

    			    A.V. Copan, J. Cayton, A. Heide      

    			-----------------------------------------

    
	                            ===> Fragment 1 <== 

	 Z (Atomic Numbers)          Masses                          Geom                  
	       6.000000            12.000000          1.19075320 -0.61781503 -3.29347714   
	       6.000000            12.000000          1.19075320 -0.61781503 -0.45888795   
	       1.000000             1.007825          1.19075320  1.16895612 -3.90871178   
	       1.000000             1.007825          2.73814241 -1.51120061 -3.90871178   
	       1.000000             1.007825         -0.34807612 -1.50625855 -3.93670126   
	       6.000000            12.000000         -1.13033062  0.72226333  0.46396402   
	       1.000000             1.007825          1.19075320 -2.40458619  0.15634670   
	       1.000000             1.007825          2.73814241  0.27557054  0.15634670   
	       6.000000            12.000000         -1.25000170  0.52162775  3.28891005   
	       1.000000             1.007825         -1.03733586  2.53845397 -0.04971716   
	       1.000000             1.007825         -2.65488660 -0.08759657 -0.30474972   
	       1.000000             1.007825         -1.21135260  2.24710697  4.05851550   
	       1.000000             1.007825         -2.84646060 -0.34790857  3.80494337   
	       1.000000             1.007825          0.22634093 -0.47089964  3.92637900   

	 - Coordinate -           - BOHR/RAD -       - ANG/DEG -
	 R(1,2)           =         2.834589           1.500000
	 R(1,3)           =         1.889726           1.000000
	 R(1,4)           =         1.889726           1.000000
	 R(1,5)           =         1.889726           1.000000
	 R(2,6)           =         2.834589           1.500000
	 R(2,7)           =         1.889726           1.000000
	 R(2,8)           =         1.889726           1.000000
	 R(6,9)           =         2.834589           1.500000
	 R(6,10)          =         1.889726           1.000000
	 R(6,11)          =         1.889726           1.000000
	 R(9,12)          =         1.889726           1.000000
	 R(9,13)          =         1.889726           1.000000
	 R(9,14)          =         1.889726           1.000000
	 B(1,2,6)         =         1.902409         109.000000
	 B(1,2,7)         =         1.902409         109.000000
	 B(1,2,8)         =         1.902409         109.000000
	 B(2,1,3)         =         1.902409         109.000000
	 B(2,1,4)         =         1.902409         109.000000
	 B(2,1,5)         =         1.918117         109.900000
	 B(2,6,9)         =         1.902409         109.000000
	 B(2,6,10)        =         1.902409         109.000000
	 B(2,6,11)        =         1.902409         109.000000
	 B(3,1,4)         =         1.918785         109.938303
	 B(3,1,5)         =         1.911036         109.494307
	 B(4,1,5)         =         1.911036         109.494307
	 B(6,2,7)         =         1.918785         109.938303
	 B(6,2,8)         =         1.918785         109.938303
	 B(6,9,12)        =         1.918117         109.900000
	 B(6,9,13)        =         1.918117         109.900000
	 B(6,9,14)        =         1.918117         109.900000
	 B(7,2,8)         =         1.918785         109.938303
	 B(9,6,10)        =         1.918785         109.938303
	 B(9,6,11)        =         1.918785         109.938303
	 B(10,6,11)       =         1.918785         109.938303
	 B(12,9,13)       =         1.903091         109.039059
	 B(12,9,14)       =         1.903091         109.039059
	 B(13,9,14)       =         1.903091         109.039059
	 D(1,2,6,9)       =         3.054326         175.000000
	 D(1,2,6,10)      =        -1.134464         -65.000000
	 D(1,2,6,11)      =         0.959931          55.000000
	 D(2,6,9,12)      =         2.084249         119.418677
	 D(2,6,9,13)      =        -2.104541        -120.581323
	 D(2,6,9,14)      =        -0.010146          -0.581323
	 D(3,1,2,6)       =         1.047198          60.000000
	 D(3,1,2,7)       =         3.141593         180.000000
	 D(3,1,2,8)       =        -1.047198         -60.000000
	 D(4,1,2,6)       =         3.141593         180.000000
	 D(4,1,2,7)       =        -1.047198         -60.000000
	 D(4,1,2,8)       =         1.047198          60.000000
	 D(5,1,2,6)       =        -1.047198         -60.000000
	 D(5,1,2,7)       =         1.047198          60.000000
	 D(5,1,2,8)       =         3.141593         180.000000
	 D(7,2,6,9)       =         0.970077          55.581323
	 D(7,2,6,10)      =         3.064472         175.581323
	 D(7,2,6,11)      =        -1.124318         -64.418677
	 D(8,2,6,9)       =        -1.144610         -65.581323
	 D(8,2,6,10)      =         0.949785          54.418677
	 D(8,2,6,11)      =         3.044180         174.418677
	 D(10,6,9,12)     =         0.000000           0.000000
	 D(10,6,9,13)     =         2.094395         120.000000
	 D(10,6,9,14)     =        -2.094395        -120.000000
	 D(11,6,9,12)     =        -2.114687        -121.162647
	 D(11,6,9,13)     =        -0.020292          -1.162647
	 D(11,6,9,14)     =         2.074103         118.837353


	        --- Internal Coordinate Step in ANG or DEG, aJ/ANG or AJ/DEG ---
	-------------------------------------------------------------------------------
	           Coordinate      Previous         Force          Change          New 
	           ----------      --------        ------          ------        ------
	               R(1,2)       1.50000        0.33778        0.04407       1.54407
	               R(1,3)       1.00000        0.77047        0.07668       1.07668
	               R(1,4)       1.00000        0.77744        0.07737       1.07737
	               R(1,5)       1.00000        0.76950        0.07658       1.07658
	               R(2,6)       1.50000        0.35177        0.04590       1.54590
	               R(2,7)       1.00000        0.78952        0.07858       1.07858
	               R(2,8)       1.00000        0.79103        0.07873       1.07873
	               R(6,9)       1.50000        0.42018        0.05482       1.55482
	              R(6,10)       1.00000        0.78356        0.07798       1.07798
	              R(6,11)       1.00000        0.78242        0.07787       1.07787
	              R(9,12)       1.00000        0.76934        0.07657       1.07657
	              R(9,13)       1.00000        0.76903        0.07654       1.07654
	              R(9,14)       1.00000        0.75799        0.07544       1.07544
	             B(1,2,6)     109.00000        0.00125        2.55505     111.55505
	             B(1,2,7)     109.00000       -0.00022       -0.23474     108.76526
	             B(1,2,8)     109.00000       -0.00026       -0.35417     108.64583
	             B(2,1,3)     109.00000        0.00040        0.89481     109.89481
	             B(2,1,4)     109.00000        0.00058        1.34220     110.34220
	             B(2,1,5)     109.90000        0.00011        0.24115     110.14115
	             B(2,6,9)     109.00000        0.00153        3.12259     112.12259
	            B(2,6,10)     109.00000       -0.00042       -0.76379     108.23621
	            B(2,6,11)     109.00000       -0.00043       -0.77200     108.22800
	             B(3,1,4)     109.93830       -0.00047       -1.06585     108.87245
	             B(3,1,5)     109.49431       -0.00028       -0.66252     108.83179
	             B(4,1,5)     109.49431       -0.00034       -0.77301     108.72130
	             B(6,2,7)     109.93830       -0.00040       -0.81520     109.12310
	             B(6,2,8)     109.93830       -0.00039       -0.80907     109.12923
	            B(6,9,12)     109.90000        0.00039        0.88497     110.78497
	            B(6,9,13)     109.90000        0.00037        0.84219     110.74219
	            B(6,9,14)     109.90000        0.00033        0.74711     110.64711
	             B(7,2,8)     109.93830        0.00004       -0.33723     109.60107
	            B(9,6,10)     109.93830       -0.00037       -0.61613     109.32217
	            B(9,6,11)     109.93830       -0.00034       -0.52926     109.40904
	           B(10,6,11)     109.93830        0.00004       -0.45570     109.48260
	           B(12,9,13)     109.03906       -0.00038       -0.88632     108.15274
	           B(12,9,14)     109.03906       -0.00036       -0.84177     108.19729
	           B(13,9,14)     109.03906       -0.00036       -0.82172     108.21734
	           D(1,2,6,9)     175.00000        0.00005        0.20878     175.20878
	          D(1,2,6,10)     -65.00000        0.00027        0.87283     -64.12717
	          D(1,2,6,11)      55.00000       -0.00019       -0.55814      54.44186
	          D(2,6,9,12)     119.41868       -0.00000       -0.01614     119.40254
	          D(2,6,9,13)    -120.58132       -0.00000       -0.01084    -120.59216
	          D(2,6,9,14)      -0.58132       -0.00000       -0.01491      -0.59623
	           D(3,1,2,6)      60.00000       -0.00002       -0.09383      59.90617
	           D(3,1,2,7)     180.00000        0.00010        0.31823     180.31823
	           D(3,1,2,8)     -60.00000       -0.00014       -0.43512     -60.43512
	           D(4,1,2,6)     180.00000       -0.00001       -0.02471     179.97529
	           D(4,1,2,7)     -60.00000        0.00012        0.38735     -59.61265
	           D(4,1,2,8)      60.00000       -0.00012       -0.36600      59.63400
	           D(5,1,2,6)     -60.00000        0.00001        0.01418     -59.98582
	           D(5,1,2,7)      60.00000        0.00013        0.42625      60.42625
	           D(5,1,2,8)     180.00000       -0.00010       -0.32710     179.67290
	           D(7,2,6,9)      55.58132       -0.00020       -0.57448      55.00685
	          D(7,2,6,10)     175.58132        0.00002        0.08958     175.67090
	          D(7,2,6,11)     -64.41868       -0.00044       -1.34139     -65.76007
	           D(8,2,6,9)     -65.58132        0.00026        0.84721     -64.73411
	          D(8,2,6,10)      54.41868        0.00048        1.51127      55.92995
	          D(8,2,6,11)     174.41868        0.00002        0.08029     174.49897
	         D(10,6,9,12)       0.00000       -0.00020       -0.63084      -0.63084
	         D(10,6,9,13)     120.00000       -0.00020       -0.62554     119.37446
	         D(10,6,9,14)    -120.00000       -0.00020       -0.62961    -120.62961
	         D(11,6,9,12)    -121.16265        0.00020        0.64672    -120.51592
	         D(11,6,9,13)      -1.16265        0.00021        0.65203      -0.51062
	         D(11,6,9,14)     118.83735        0.00020        0.64796     119.48531
	-------------------------------------------------------------------------------

	                                 ==> Convergence Check <==                                  
    
	Measures of convergence in internal coordinates in au.
    
	Criteria marked as inactive (o), active & met (*), and active & unmet ( ).

	----------------------------------------------------------------------------------------------
	   Step    Total Energy     Delta E     Max Force     RMS Force      Max Disp      RMS Disp   
	----------------------------------------------------------------------------------------------
	  Convergence Criteria     1.00e-06 *    3.00e-04 *             o    1.20e-03 *             o
	----------------------------------------------------------------------------------------------
	     1    -155.38120506   -1.55e+02      9.60e-02      3.88e-02 o    1.49e-01      6.25e-02 o  ~
	----------------------------------------------------------------------------------------------

Next Geometry in Ang 
	Fragment 1 (Ang)

	    C   0.6638333970  -0.3413016704  -1.8212851186
	    C   0.6464097855  -0.3359956279  -0.2773187921
	    H   0.6656937667   0.6698541891  -2.1911531076
	    H   1.5433721299  -0.8467327896  -2.1841724885
	    H  -0.2070788345  -0.8482965928  -2.2001013564
	    C  -0.6055163906   0.3840386203   0.2740736916
	    H   0.6504601274  -1.3560099693   0.0732255201
	    H   1.5303536351   0.1715339957   0.0758240791
	    C  -0.6980368364   0.2937539879   1.8235151970
	    H  -0.5561179269   1.4198030030  -0.0205455209
	    H  -1.4777633711  -0.0731384609  -0.1640810513
	    H  -0.6818378719   1.2754801866   2.2650469133
	    H  -1.6098330083  -0.1938073872   2.1232550959
	    H   0.1292849965  -0.2668611500   2.2207792342


    Structure for next step:
    Molecular point group: c1
    Full point group: C1

    Geometry (in Angstrom), charge = 0, multiplicity = 1:

    C       
    C             1    1.544074
    H             1    1.076681      2  109.894812
    H             1    1.077375      2  110.342202      3  120.069116
    H             1    1.076584      2  110.141147      3 -119.891985
    C             2    1.545898      1  111.555051      3   59.906170
    H             2    1.078576      1  108.765262      6  120.412063
    H             2    1.078727      1  108.645827      6 -120.341286
    C             6    1.554825      2  112.122590      1    dihedral
    H             6    1.077984      2  108.236206      9  120.664058
    H             6    1.077871      2  108.227997      9 -120.766916
    H             9    1.076568      6  110.784966     10   -0.630841
    H             9    1.076537      6  110.742192     10  119.374460
    H             9    1.075439      6  110.647113     10 -120.629607

    dihedral  =  175.2087766153


Scratch directory: /tmp/
gradient() will perform analytic gradient computation.
   => Libint2 <=

    Primary   basis highest AM E, G, H:  5, 4, 3
    Auxiliary basis highest AM E, G, H:  6, 5, 4
    Onebody   basis highest AM E, G, H:  6, 5, 4
    Solid Harmonics ordering:            Gaussian

*** tstart() called on Barrys-MacBook-Pro.local
*** at Mon May  6 19:10:16 2024

   => Loading Basis Set <=

    Name: STO-3G
    Role: ORBITAL
    Keyword: BASIS
    atoms 1-2, 6, 9       entry C          line    61 file /Users/blink/psi4conda/share/psi4/basis/sto-3g.gbs 
    atoms 3-5, 7-8, 10-14 entry H          line    19 file /Users/blink/psi4conda/share/psi4/basis/sto-3g.gbs 


         ---------------------------------------------------------
                                   SCF
               by Justin Turney, Rob Parrish, Andy Simmonett
                          and Daniel G. A. Smith
                              RHF Reference
                        4 Threads,    953 MiB Core
         ---------------------------------------------------------

  ==> Geometry <==

    Molecular point group: c1
    Full point group: C1

    Geometry (in Angstrom), charge = 0, multiplicity = 1:

       Center              X                  Y                   Z               Mass       
    ------------   -----------------  -----------------  -----------------  -----------------
         C            0.641327999667    -0.335749250910    -1.829563519407    12.000000000000
         C            0.641327999667    -0.335749250910    -0.285489766764    12.000000000000
         H            0.641327999667     0.676674284066    -2.195952040500     1.007825032230
         H            1.515561537815    -0.841895318957    -2.204087377947     1.007825032230
         H           -0.234956755362    -0.839472239543    -2.200268101534     1.007825032230
         C           -0.602652305228     0.385181950874     0.282465639328    12.000000000000
         H            0.647000177169    -1.356977570902     0.061479283163     1.007825032230
         H            1.530355229687     0.168568043611     0.059398021334     1.007825032230
         C           -0.677900856245     0.289741811691     1.832533109466    12.000000000000
         H           -0.554212593625     1.421846515736    -0.009131204601     1.007825032230
         H           -1.480827008565    -0.068515195798    -0.147387064373     1.007825032230
         H           -0.654480815756     1.269894705753     2.277224910784     1.007825032230
         H           -1.587370789990    -0.196805091597     2.140865577809     1.007825032230
         H            0.152564888803    -0.274102125244     2.218507363063     1.007825032230

  Running in c1 symmetry.

  Rotational constants: A =      0.77995  B =      0.12008  C =      0.11277 [cm^-1]
  Rotational constants: A =  23382.29545  B =   3599.82279  C =   3380.86796 [MHz]
  Nuclear repulsion =  130.552401329144885

  Charge       = 0
  Multiplicity = 1
  Electrons    = 34
  Nalpha       = 17
  Nbeta        = 17

  ==> Algorithm <==

  SCF Algorithm Type is DIRECT.
  DIIS enabled.
  MOM disabled.
  Fractional occupation disabled.
  Guess Type is READ.
  Energy threshold   = 1.00e-08
  Density threshold  = 1.00e-08
  Integral threshold = 1.00e-08

  ==> Primary Basis <==

  -AO BASIS SET INFORMATION:
    Name                   = STO-3G
    Blend                  = STO-3G
    Total number of shells = 22
    Number of primitives   = 66
    Number of AO           = 30
    Number of SO           = 30
    Maximum AM             = 1
    Spherical Harmonics    = TRUE

  -Contraction Scheme:
    Atom   Type   All Primitives // Shells:
   ------ ------ --------------------------
       1     C     6s 3p // 2s 1p 
       2     C     6s 3p // 2s 1p 
       3     H     3s // 1s 
       4     H     3s // 1s 
       5     H     3s // 1s 
       6     C     6s 3p // 2s 1p 
       7     H     3s // 1s 
       8     H     3s // 1s 
       9     C     6s 3p // 2s 1p 
      10     H     3s // 1s 
      11     H     3s // 1s 
      12     H     3s // 1s 
      13     H     3s // 1s 
      14     H     3s // 1s 

   => Loading Basis Set <=

    Name: (STO-3G AUX)
    Role: JKFIT
    Keyword: DF_BASIS_SCF
    atoms 1-2, 6, 9       entry C          line   198 file /Users/blink/psi4conda/share/psi4/basis/def2-universal-jkfit.gbs 
    atoms 3-5, 7-8, 10-14 entry H          line    18 file /Users/blink/psi4conda/share/psi4/basis/def2-universal-jkfit.gbs 

   => Loading Basis Set <=

    Name: STO-3G
    Role: ORBITAL
    Keyword: BASIS
    atoms 1-2, 6, 9       entry C          line    61 file /Users/blink/psi4conda/share/psi4/basis/sto-3g.gbs 
    atoms 3-5, 7-8, 10-14 entry H          line    19 file /Users/blink/psi4conda/share/psi4/basis/sto-3g.gbs 

  Reading orbitals from file /tmp/butane_1.default.26831.180.npy, no projection.

  Starting with a DF guess...

  ==> Integral Setup <==

  DFHelper Memory: AOs need 0.005 GiB; user supplied 0.698 GiB. 
  Using in-core AOs.

  ==> MemDFJK: Density-Fitted J/K Matrices <==

    J tasked:                   Yes
    K tasked:                   Yes
    wK tasked:                   No
    OpenMP threads:               4
    Memory [MiB]:               715
    Algorithm:                 Core
    Schwarz Cutoff:           1E-08
    Mask sparsity (%):       0.6667
    Fitting Condition:        1E-10

   => Auxiliary Basis Set <=

  -AO BASIS SET INFORMATION:
    Name                   = (STO-3G AUX)
    Blend                  = DEF2-UNIVERSAL-JKFIT
    Total number of shells = 160
    Number of primitives   = 212
    Number of AO           = 556
    Number of SO           = 480
    Maximum AM             = 4
    Spherical Harmonics    = TRUE

  -Contraction Scheme:
    Atom   Type   All Primitives // Shells:
   ------ ------ --------------------------
       1     C     14s 10p 6d 2f 1g // 10s 8p 5d 1f 1g 
       2     C     14s 10p 6d 2f 1g // 10s 8p 5d 1f 1g 
       3     H     4s 2p 2d // 2s 2p 2d 
       4     H     4s 2p 2d // 2s 2p 2d 
       5     H     4s 2p 2d // 2s 2p 2d 
       6     C     14s 10p 6d 2f 1g // 10s 8p 5d 1f 1g 
       7     H     4s 2p 2d // 2s 2p 2d 
       8     H     4s 2p 2d // 2s 2p 2d 
       9     C     14s 10p 6d 2f 1g // 10s 8p 5d 1f 1g 
      10     H     4s 2p 2d // 2s 2p 2d 
      11     H     4s 2p 2d // 2s 2p 2d 
      12     H     4s 2p 2d // 2s 2p 2d 
      13     H     4s 2p 2d // 2s 2p 2d 
      14     H     4s 2p 2d // 2s 2p 2d 

  Minimum eigenvalue in the overlap matrix is 1.9818185847E-01.
  Reciprocal condition number of the overlap matrix is 7.5987108315E-02.
    Using symmetric orthogonalization.

  ==> Pre-Iterations <==

  SCF Guess: Orbitals guess was supplied from a previous computation.

   -------------------------------------------------------
    Irrep   Nso     Nmo     Nalpha   Nbeta   Ndocc  Nsocc
   -------------------------------------------------------
     A         30      30      17      17      17       0
   -------------------------------------------------------
    Total      30      30      17      17      17       0
   -------------------------------------------------------

  ==> Iterations <==

                           Total Energy        Delta E     RMS |[F,P]|

   @DF-RHF iter   0:  -155.20507963561195   -1.55205e+02   8.31193e-03 
   @DF-RHF iter   1:  -155.45993202026943   -2.54852e-01   1.15631e-03 DIIS/ADIIS
   @DF-RHF iter   2:  -155.46080214339230   -8.70123e-04   2.23884e-04 DIIS/ADIIS
   @DF-RHF iter   3:  -155.46083080027202   -2.86569e-05   4.46940e-05 DIIS
   @DF-RHF iter   4:  -155.46083260549582   -1.80522e-06   3.04481e-06 DIIS
   @DF-RHF iter   5:  -155.46083261453680   -9.04097e-09   6.56677e-07 DIIS
   @DF-RHF iter   6:  -155.46083261495329   -4.16492e-10   1.39788e-07 DIIS
   @DF-RHF iter   7:  -155.46083261497057   -1.72804e-11   1.00660e-08 DIIS
   @DF-RHF iter   8:  -155.46083261497068   -1.13687e-13   1.73152e-09 DIIS

  DF guess converged.

  ==> DirectJK: Integral-Direct J/K Matrices <==

    J tasked:                  Yes
    K tasked:                  Yes
    wK tasked:                  No
    Integrals threads:           4
    Screening Type:           CSAM
    Screening Cutoff:        1E-08
    Incremental Fock:           No

   @RHF iter   9:  -155.46031911452840   -1.55460e+02   4.39011e-06 DIIS
   @RHF iter  10:  -155.46031912299824   -8.46984e-09   7.05501e-07 DIIS
   @RHF iter  11:  -155.46031912324545   -2.47212e-10   1.16226e-07 DIIS
   @RHF iter  12:  -155.46031912325634   -1.08855e-11   1.98035e-08 DIIS
   @RHF iter  13:  -155.46031912325665   -3.12639e-13   1.20009e-09 DIIS
  Energy and wave function converged.


  ==> Post-Iterations <==

    Orbital Energies [Eh]
    ---------------------

    Doubly Occupied:                                                      

       1A    -11.037158     2A    -11.036277     3A    -11.030021  
       4A    -11.028770     5A     -1.028757     6A     -0.943336  
       7A     -0.830772     8A     -0.761516     9A     -0.615382  
      10A     -0.555755    11A     -0.548747    12A     -0.540488  
      13A     -0.482608    14A     -0.476905    15A     -0.436062  
      16A     -0.429879    17A     -0.412365  

    Virtual:                                                              

      18A      0.596849    19A      0.628735    20A      0.639252  
      21A      0.684267    22A      0.686585    23A      0.734181  
      24A      0.755325    25A      0.770062    26A      0.783284  
      27A      0.785577    28A      0.805649    29A      0.820719  
      30A      0.864628  

    Final Occupation by Irrep:
              A 
    DOCC [    17 ]
    NA   [    17 ]
    NB   [    17 ]

  @RHF Final Energy:  -155.46031912325665

   => Energetics <=

    Nuclear Repulsion Energy =            130.5524013291448853
    One-Electron Energy =                -467.6358469787977583
    Two-Electron Energy =                 181.6231265263961916
    Total Energy =                       -155.4603191232566530

Computation Completed


Properties will be evaluated at   0.000000,   0.000000,   0.000000 [a0]

Properties computed using the SCF density matrix


 Multipole Moments:

 ------------------------------------------------------------------------------------
     Multipole            Electronic (a.u.)      Nuclear  (a.u.)        Total (a.u.)
 ------------------------------------------------------------------------------------

 L = 1.  Multiply by 2.5417464519 to convert [e a0] to [Debye]
 Dipole X            :          0.0261334           -0.0234725            0.0026609
 Dipole Y            :          0.0387862           -0.0382337            0.0005524
 Dipole Z            :          0.0013870            0.0006088            0.0019957
 Magnitude           :                                                    0.0033717

 ------------------------------------------------------------------------------------

*** tstop() called on Barrys-MacBook-Pro.local at Mon May  6 19:10:17 2024
Module time:
	user time   =       3.03 seconds =       0.05 minutes
	system time =       0.05 seconds =       0.00 minutes
	total time  =          1 seconds =       0.02 minutes
Total time:
	user time   =       8.56 seconds =       0.14 minutes
	system time =       0.23 seconds =       0.00 minutes
	total time  =          3 seconds =       0.05 minutes

*** tstart() called on Barrys-MacBook-Pro.local
*** at Mon May  6 19:10:17 2024


         ------------------------------------------------------------
                                   SCF GRAD                          
                          Rob Parrish, Justin Turney,                
                       Andy Simmonett, and Alex Sokolov              
         ------------------------------------------------------------

  ==> Geometry <==

    Molecular point group: c1
    Full point group: C1

    Geometry (in Angstrom), charge = 0, multiplicity = 1:

       Center              X                  Y                   Z               Mass       
    ------------   -----------------  -----------------  -----------------  -----------------
         C            0.641327999667    -0.335749250910    -1.829563519407    12.000000000000
         C            0.641327999667    -0.335749250910    -0.285489766764    12.000000000000
         H            0.641327999667     0.676674284066    -2.195952040500     1.007825032230
         H            1.515561537815    -0.841895318957    -2.204087377947     1.007825032230
         H           -0.234956755362    -0.839472239543    -2.200268101534     1.007825032230
         C           -0.602652305228     0.385181950874     0.282465639328    12.000000000000
         H            0.647000177169    -1.356977570902     0.061479283163     1.007825032230
         H            1.530355229687     0.168568043611     0.059398021334     1.007825032230
         C           -0.677900856245     0.289741811691     1.832533109466    12.000000000000
         H           -0.554212593625     1.421846515736    -0.009131204601     1.007825032230
         H           -1.480827008565    -0.068515195798    -0.147387064373     1.007825032230
         H           -0.654480815756     1.269894705753     2.277224910784     1.007825032230
         H           -1.587370789990    -0.196805091597     2.140865577809     1.007825032230
         H            0.152564888803    -0.274102125244     2.218507363063     1.007825032230

  Nuclear repulsion =  130.552401329144885

  ==> Basis Set <==

  -AO BASIS SET INFORMATION:
    Name                   = STO-3G
    Blend                  = STO-3G
    Total number of shells = 22
    Number of primitives   = 66
    Number of AO           = 30
    Number of SO           = 30
    Maximum AM             = 1
    Spherical Harmonics    = TRUE

  -Contraction Scheme:
    Atom   Type   All Primitives // Shells:
   ------ ------ --------------------------
       1     C     6s 3p // 2s 1p 
       2     C     6s 3p // 2s 1p 
       3     H     3s // 1s 
       4     H     3s // 1s 
       5     H     3s // 1s 
       6     C     6s 3p // 2s 1p 
       7     H     3s // 1s 
       8     H     3s // 1s 
       9     C     6s 3p // 2s 1p 
      10     H     3s // 1s 
      11     H     3s // 1s 
      12     H     3s // 1s 
      13     H     3s // 1s 
      14     H     3s // 1s 

  ==> DirectJKGrad: Integral-Direct SCF Gradients <==

    Gradient:                    1
    J tasked:                  Yes
    K tasked:                  Yes
    wK tasked:                  No
    Integrals threads:           4
    Schwarz Cutoff:          1E-08


  -Nuclear Gradient:
     Atom            X                  Y                   Z
    ------   -----------------  -----------------  -----------------
       1       -1.165307330617     0.644698268784     5.773988088820
       2       -3.760148530657     2.080579159543    -0.890336035876
       3       -0.159126812623    -1.748752020675     1.244519900978
       4       -1.630130088072     0.940727194793     1.116240807166
       5        1.429254215156     1.002917339176     1.254144958378
       6        3.562225168468    -2.384367306843     0.743273195305
       7       -0.364525193252     2.177489133975    -0.646154288891
       8       -2.067069752510    -0.790967558738    -0.660191713935
       9        1.358994406821    -0.362039618563    -5.625833038931
      10        0.241665210767    -2.227051013974     0.542666337743
      11        2.051679119573     0.655623875564     0.794451933417
      12        0.079158229600    -1.770973553955    -1.264571433322
      13        1.732757776315     0.827214800418    -1.024853051467
      14       -1.309426418970     0.954901300494    -1.357345659385


  -Core Hamiltonian Gradient:
     Atom            X                  Y                   Z
    ------   -----------------  -----------------  -----------------
       1        2.443083901885    -1.362973888675   -10.909952272640
       2        6.836341831282    -3.752472254522     1.265828827700
       3        0.306100633928     5.040444440749    -2.966741623273
       4        4.487598541388    -2.597270683775    -2.724722756579
       5       -4.199063392946    -2.765610989145    -3.003676850795
       6       -6.543439758788     4.353449034881    -0.857972043555
       7        0.651464748828    -6.057011077804     1.846918510119
       8        5.567839707416     2.499261631793     1.847700051400
       9       -2.793207117680     0.834547518294    10.527574287198
      10       -0.286540528421     6.173667922293    -1.549382333319
      11       -5.513887216274    -2.166980510401    -2.313637053296
      12       -0.118134591025     4.949322951990     3.139383738749
      13       -4.768152817884    -2.356732723408     2.464090712866
      14        3.929996058291    -2.791641372270     3.234588805424


  -Overlap Gradient:
     Atom            X                  Y                   Z
    ------   -----------------  -----------------  -----------------
       1       -0.000744593816     0.000828633432    -0.041064362335
       2        0.033013233900    -0.018961797775     0.021006607491
       3        0.000220167986    -0.162339593142     0.058557170826
       4       -0.140118245384     0.081266989345     0.061118620642
       5        0.140534220782     0.080619696951     0.059547038690
       6       -0.027842838481     0.020368745699    -0.029125221786
       7        0.000171204441     0.163691712087    -0.055263827879
       8       -0.142062616574    -0.081996224378    -0.054327476444
       9       -0.002005070583    -0.003155618379     0.049284429345
      10       -0.009828184822    -0.166364508409     0.046752440100
      11        0.139908259872     0.074343562596     0.069589090665
      12       -0.003693875681    -0.156765384363    -0.072822376108
      13        0.145651585801     0.078021881534    -0.051006823843
      14       -0.133203247441     0.090441904801    -0.062245309364


  -Coulomb Gradient:
     Atom            X                  Y                   Z
    ------   -----------------  -----------------  -----------------
       1       -1.280117847078     0.719593959125     5.097363492206
       2       -3.045356579591     1.654008646314    -0.351201487838
       3       -0.147008525240    -3.442851044697     1.778837522046
       4       -2.987492307934     1.731787769535     1.665621394089
       5        2.900685390498     1.837981264270     1.806763805782
       6        2.953183551845    -1.948681072235     0.080662296619
       7       -0.289459072773     4.030552222384    -1.252891638140
       8       -3.632917651804    -1.781208683745    -1.239613140489
       9        1.433725895669    -0.476903021701    -4.853246295555
      10        0.039717913649    -4.100289704664     1.051254201328
      11        3.593317314549     1.576832551312     1.583847790065
      12        0.035554441798    -3.324633304461    -1.942947556454
      13        3.171318936344     1.602294535791    -1.487006535049
      14       -2.745151459930     1.921515882770    -1.937443848609


  -Exchange Gradient:
     Atom            X                  Y                   Z
    ------   -----------------  -----------------  -----------------
       1        0.002376767700    -0.002297924592     0.066416496315
       2       -0.052887675565     0.030656009221    -0.032067001773
       3       -0.000193117697     0.306561582642    -0.110120508441
       4        0.264191137067    -0.153370344214    -0.114410203473
       5       -0.265128848054    -0.152475154056    -0.112278551370
       6        0.043164184952    -0.032042392370     0.050941835791
       7       -0.001254805086    -0.307642201212     0.102336178749
       8        0.266376160225     0.155009642000     0.100633244838
       9        0.003333261314     0.005462378047    -0.085824628156
      10        0.019601290889     0.312670255326    -0.086302477738
      11       -0.262662818073    -0.140864410460    -0.129370286325
      12        0.006917146534     0.296374494188     0.136712453476
      13       -0.275280120226    -0.147292924054     0.095478877127
      14        0.251447436020    -0.170749010465     0.117854570981


  -Total Gradient:
     Atom            X                  Y                   Z
    ------   -----------------  -----------------  -----------------
       1       -0.000709101925    -0.000150951926    -0.013248557634
       2        0.010962279369    -0.006190237218     0.013230909704
       3       -0.000007653646    -0.006936635124     0.005052462136
       4       -0.005950962936     0.003140925684     0.003847861845
       5        0.006281585436     0.003432157196     0.004500400685
       6       -0.012709692004     0.008727009133    -0.012219937626
       7       -0.003603117843     0.007079789430    -0.005055066042
       8       -0.007834153247     0.000098806932    -0.005799034630
       9        0.000841375541    -0.002088362302     0.011954753901
      10        0.004615702062    -0.007367049428     0.004988168114
      11        0.008354659646    -0.001044931388     0.004881474526
      12       -0.000198648774    -0.006674796601    -0.004245173659
      13        0.006295360351     0.003505570281    -0.003296820366
      14       -0.006337632030     0.004468705331    -0.004591440954


*** tstop() called on Barrys-MacBook-Pro.local at Mon May  6 19:10:17 2024
Module time:
	user time   =       0.47 seconds =       0.01 minutes
	system time =       0.00 seconds =       0.00 minutes
	total time  =          0 seconds =       0.00 minutes
Total time:
	user time   =       9.04 seconds =       0.15 minutes
	system time =       0.23 seconds =       0.00 minutes
	total time  =          3 seconds =       0.05 minutes

    			-----------------------------------------

    			 OPTKING 3.0: for geometry optimizations 

    			     By R.A. King, Bethel University     

    			        with contributions from          

    			    A.V. Copan, J. Cayton, A. Heide      

    			-----------------------------------------

    
	                            ===> Fragment 1 <== 

	 Z (Atomic Numbers)          Masses                          Geom                  
	       6.000000            12.000000          1.21193428 -0.63447413 -3.45737398   
	       6.000000            12.000000          1.21193428 -0.63447413 -0.53949747   
	       1.000000             1.007825          1.21193428  1.27872907 -4.14974794   
	       1.000000             1.007825          2.86399623 -1.59095158 -4.16512150   
	       1.000000             1.007825         -0.44400392 -1.58637262 -4.15790411   
	       6.000000            12.000000         -1.13884781  0.72788840  0.53378270   
	       1.000000             1.007825          1.22265314 -2.56431597  0.11617901   
	       1.000000             1.007825          2.89195226  0.31854744  0.11224599   
	       6.000000            12.000000         -1.28104696  0.54753267  3.46298569   
	       1.000000             1.007825         -1.04731002  2.68690051 -0.01725548   
	       1.000000             1.007825         -2.79835749 -0.12947496 -0.27852119   
	       1.000000             1.007825         -1.23678950  2.39975320  4.30333141   
	       1.000000             1.007825         -2.99969605 -0.37190772  4.04564961   
	       1.000000             1.007825          0.28830586 -0.51797795  4.19237132   

	 - Coordinate -           - BOHR/RAD -       - ANG/DEG -
	 R(1,2)           =         2.917877           1.544074
	 R(1,3)           =         2.034632           1.076681
	 R(1,4)           =         2.035943           1.077375
	 R(1,5)           =         2.034449           1.076584
	 R(2,6)           =         2.921325           1.545898
	 R(2,7)           =         2.038214           1.078576
	 R(2,8)           =         2.038499           1.078727
	 R(6,9)           =         2.938193           1.554825
	 R(6,10)          =         2.037094           1.077984
	 R(6,11)          =         2.036880           1.077871
	 R(9,12)          =         2.034419           1.076568
	 R(9,13)          =         2.034360           1.076537
	 R(9,14)          =         2.032286           1.075439
	 B(1,2,6)         =         1.947003         111.555051
	 B(1,2,7)         =         1.898312         108.765262
	 B(1,2,8)         =         1.896227         108.645827
	 B(2,1,3)         =         1.918026         109.894812
	 B(2,1,4)         =         1.925835         110.342202
	 B(2,1,5)         =         1.922326         110.141147
	 B(2,6,9)         =         1.956908         112.122590
	 B(2,6,10)        =         1.889078         108.236206
	 B(2,6,11)        =         1.888935         108.227997
	 B(3,1,4)         =         1.900183         108.872455
	 B(3,1,5)         =         1.899473         108.831789
	 B(4,1,5)         =         1.897545         108.721295
	 B(6,2,7)         =         1.904557         109.123105
	 B(6,2,8)         =         1.904664         109.129229
	 B(6,9,12)        =         1.933562         110.784966
	 B(6,9,13)        =         1.932816         110.742192
	 B(6,9,14)        =         1.931156         110.647113
	 B(7,2,8)         =         1.912900         109.601070
	 B(9,6,10)        =         1.908032         109.322172
	 B(9,6,11)        =         1.909548         109.409044
	 B(10,6,11)       =         1.910832         109.482603
	 B(12,9,13)       =         1.887621         108.152744
	 B(12,9,14)       =         1.888399         108.197286
	 B(13,9,14)       =         1.888749         108.217341
	 D(1,2,6,9)       =         3.057970         175.208777
	 D(1,2,6,10)      =        -1.119230         -64.127165
	 D(1,2,6,11)      =         0.950190          54.441861
	 D(2,6,9,12)      =         2.083967         119.402536
	 D(2,6,9,13)      =        -2.104730        -120.592163
	 D(2,6,9,14)      =        -0.010406          -0.596230
	 D(3,1,2,6)       =         1.045560          59.906170
	 D(3,1,2,7)       =         3.147147         180.318233
	 D(3,1,2,8)       =        -1.054792         -60.435116
	 D(4,1,2,6)       =         3.141161         179.975286
	 D(4,1,2,7)       =        -1.040437         -59.612651
	 D(4,1,2,8)       =         1.040810          59.634000
	 D(5,1,2,6)       =        -1.046950         -59.985816
	 D(5,1,2,7)       =         1.054637          60.426248
	 D(5,1,2,8)       =         3.135884         179.672899
	 D(7,2,6,9)       =         0.960051          55.006846
	 D(7,2,6,10)      =         3.066036         175.670904
	 D(7,2,6,11)      =        -1.147730         -65.760070
	 D(8,2,6,9)       =        -1.129823         -64.734113
	 D(8,2,6,10)      =         0.976162          55.929945
	 D(8,2,6,11)      =         3.045582         174.498971
	 D(10,6,9,12)     =        -0.011010          -0.630841
	 D(10,6,9,13)     =         2.083477         119.374460
	 D(10,6,9,14)     =        -2.105384        -120.629607
	 D(11,6,9,12)     =        -2.103400        -120.515923
	 D(11,6,9,13)     =        -0.008912          -0.510621
	 D(11,6,9,14)     =         2.085412         119.485312


	        --- Internal Coordinate Step in ANG or DEG, aJ/ANG or AJ/DEG ---
	-------------------------------------------------------------------------------
	           Coordinate      Previous         Force          Change          New 
	           ----------      --------        ------          ------        ------
	               R(1,2)       1.54407        0.00125       -0.00173       1.54235
	               R(1,3)       1.07668        0.06790        0.00759       1.08427
	               R(1,4)       1.07737        0.06296        0.00685       1.08422
	               R(1,5)       1.07658        0.06812        0.00763       1.08421
	               R(2,6)       1.54590        0.01518        0.00118       1.54708
	               R(2,7)       1.07858        0.06878        0.00766       1.08624
	               R(2,8)       1.07873        0.06809        0.00756       1.08628
	               R(6,9)       1.55482        0.00131       -0.00220       1.55262
	              R(6,10)       1.07798        0.06778        0.00753       1.08552
	              R(6,11)       1.07787        0.06849        0.00764       1.08551
	              R(9,12)       1.07657        0.06455        0.00710       1.08367
	              R(9,13)       1.07654        0.06465        0.00712       1.08366
	              R(9,14)       1.07544        0.07320        0.00840       1.08384
	             B(1,2,6)     111.55505        0.00006        0.64243     112.19748
	             B(1,2,7)     108.76526        0.00006        0.74821     109.51348
	             B(1,2,8)     108.64583        0.00006        0.76866     109.41448
	             B(2,1,3)     109.89481        0.00021        0.99319     110.88800
	             B(2,1,4)     110.34220        0.00007        0.16925     110.51145
	             B(2,1,5)     110.14115        0.00013        0.67212     110.81327
	             B(2,6,9)     112.12259        0.00006        0.66790     112.79049
	            B(2,6,10)     108.23621        0.00005        0.70571     108.94192
	            B(2,6,11)     108.22800        0.00005        0.77923     109.00723
	             B(3,1,4)     108.87245       -0.00015       -0.69579     108.17666
	             B(3,1,5)     108.83179       -0.00016       -0.69515     108.13664
	             B(4,1,5)     108.72130       -0.00011       -0.50752     108.21377
	             B(6,2,7)     109.12310        0.00000        0.21251     109.33561
	             B(6,2,8)     109.12923       -0.00001        0.10343     109.23266
	            B(6,9,12)     110.78497        0.00007        0.29262     111.07759
	            B(6,9,13)     110.74219        0.00007        0.29066     111.03286
	            B(6,9,14)     110.64711        0.00013        0.57296     111.22007
	             B(7,2,8)     109.60107       -0.00018       -2.59218     107.00889
	            B(9,6,10)     109.32217        0.00002        0.29572     109.61789
	            B(9,6,11)     109.40904        0.00002        0.31272     109.72177
	           B(10,6,11)     109.48260       -0.00021       -2.91724     106.56537
	           B(12,9,13)     108.15274       -0.00008       -0.34312     107.80962
	           B(12,9,14)     108.19729       -0.00010       -0.43433     107.76296
	           B(13,9,14)     108.21734       -0.00010       -0.43881     107.77854
	           D(1,2,6,9)     175.20878        0.00002        2.20410     177.41288
	          D(1,2,6,10)     -64.12717        0.00012        3.49325     -60.63392
	          D(1,2,6,11)      54.44186       -0.00007        0.83903      55.28089
	          D(2,6,9,12)     119.40254       -0.00000       -0.05439     119.34814
	          D(2,6,9,13)    -120.59216       -0.00000       -0.10034    -120.69250
	          D(2,6,9,14)      -0.59623       -0.00000       -0.08111      -0.67734
	           D(3,1,2,6)      59.90617        0.00000       -0.08991      59.81626
	           D(3,1,2,7)     180.31823        0.00008        1.09886     181.41709
	           D(3,1,2,8)     -60.43512       -0.00007       -1.15009     -61.58520
	           D(4,1,2,6)     179.97529       -0.00001       -0.20782     179.76746
	           D(4,1,2,7)     -59.61265        0.00007        0.98095     -58.63170
	           D(4,1,2,8)      59.63400       -0.00007       -1.26800      58.36600
	           D(5,1,2,6)     -59.98582       -0.00001       -0.29770     -60.28351
	           D(5,1,2,7)      60.42625        0.00007        0.89107      61.31732
	           D(5,1,2,8)     179.67290       -0.00008       -1.35787     178.31503
	           D(7,2,6,9)      55.00685       -0.00009        0.70345      55.71030
	          D(7,2,6,10)     175.67090        0.00000        1.99259     177.66350
	          D(7,2,6,11)     -65.76007       -0.00019       -0.66162     -66.42169
	           D(8,2,6,9)     -64.73411        0.00014        3.65269     -61.08143
	          D(8,2,6,10)      55.92995        0.00023        4.94183      60.87177
	          D(8,2,6,11)     174.49897        0.00004        2.28761     176.78658
	         D(10,6,9,12)      -0.63084       -0.00011       -1.59229      -2.22313
	         D(10,6,9,13)     119.37446       -0.00012       -1.63824     117.73622
	         D(10,6,9,14)    -120.62961       -0.00012       -1.61900    -122.24861
	         D(11,6,9,12)    -120.51592        0.00012        1.59307    -118.92286
	         D(11,6,9,13)      -0.51062        0.00012        1.54712       1.03650
	         D(11,6,9,14)     119.48531        0.00012        1.56635     121.05166
	-------------------------------------------------------------------------------

	                                 ==> Convergence Check <==                                  
    
	Measures of convergence in internal coordinates in au.
    
	Criteria marked as inactive (o), active & met (*), and active & unmet ( ).

	----------------------------------------------------------------------------------------------
	   Step    Total Energy     Delta E     Max Force     RMS Force      Max Disp      RMS Disp   
	----------------------------------------------------------------------------------------------
	  Convergence Criteria     1.00e-06 *    3.00e-04 *             o    1.20e-03 *             o
	----------------------------------------------------------------------------------------------
	     2    -155.46031912   -7.91e-02      8.88e-03      3.46e-03 o    8.63e-02      2.37e-02 o  ~
	----------------------------------------------------------------------------------------------

Next Geometry in Ang 
	Fragment 1 (Ang)

	    C   0.6490163454  -0.3259835178  -1.8351800367
	    C   0.6321770207  -0.3489140564  -0.2930969747
	    H   0.6590324600   0.6926477685  -2.2065785561
	    H   1.5300653423  -0.8324404538  -2.2130605368
	    H  -0.2264158746  -0.8232897442  -2.2374454472
	    C  -0.6081988551   0.3697728193   0.2886306833
	    H   0.6476783222  -1.3778615805   0.0546684417
	    H   1.5320436425   0.1278717213   0.0849608235
	    C  -0.6722547750   0.2994976902   1.8383371893
	    H  -0.5952183381   1.4077266594  -0.0289073480
	    H  -1.5042677951  -0.0724328348  -0.1354586915
	    H  -0.6511739186   1.2912360107   2.2746375153
	    H  -1.5818318355  -0.1884846949   2.1682714934
	    H   0.1664129666  -0.2567045191   2.2408162745


    Structure for next step:
    Molecular point group: c1
    Full point group: C1

    Geometry (in Angstrom), charge = 0, multiplicity = 1:

    C       
    C             1    1.542345
    H             1    1.084273      2  110.887997
    H             1    1.084223      2  110.511449      3  119.951206
    H             1    1.084211      2  110.813267      3 -120.099770
    C             2    1.547078      1  112.197480      3   59.816256
    H             2    1.086239      1  109.513477      6  121.600836
    H             2    1.086284      1  109.414483      6 -121.401459
    C             6    1.552621      2  112.790487      1    dihedral
    H             6    1.085517      2  108.941916      9  121.953201
    H             6    1.085512      2  109.007225      9 -122.131987
    H             9    1.083673      6  111.077585     10   -2.223130
    H             9    1.083658      6  111.032856     10  117.736224
    H             9    1.083842      6  111.220071     10 -122.248611

    dihedral  =  177.4128795941


Scratch directory: /tmp/
gradient() will perform analytic gradient computation.
   => Libint2 <=

    Primary   basis highest AM E, G, H:  5, 4, 3
    Auxiliary basis highest AM E, G, H:  6, 5, 4
    Onebody   basis highest AM E, G, H:  6, 5, 4
    Solid Harmonics ordering:            Gaussian

*** tstart() called on Barrys-MacBook-Pro.local
*** at Mon May  6 19:10:17 2024

   => Loading Basis Set <=

    Name: STO-3G
    Role: ORBITAL
    Keyword: BASIS
    atoms 1-2, 6, 9       entry C          line    61 file /Users/blink/psi4conda/share/psi4/basis/sto-3g.gbs 
    atoms 3-5, 7-8, 10-14 entry H          line    19 file /Users/blink/psi4conda/share/psi4/basis/sto-3g.gbs 


         ---------------------------------------------------------
                                   SCF
               by Justin Turney, Rob Parrish, Andy Simmonett
                          and Daniel G. A. Smith
                              RHF Reference
                        4 Threads,    953 MiB Core
         ---------------------------------------------------------

  ==> Geometry <==

    Molecular point group: c1
    Full point group: C1

    Geometry (in Angstrom), charge = 0, multiplicity = 1:

       Center              X                  Y                   Z               Mass       
    ------------   -----------------  -----------------  -----------------  -----------------
         C            0.631257397532    -0.347910809757    -1.836898145505    12.000000000000
         C            0.631257397532    -0.347910809757    -0.294552677561    12.000000000000
         H            0.631257397532     0.665102430086    -2.223487147130     1.007825032230
         H            1.511125880582    -0.854904534358    -2.216803990556     1.007825032230
         H           -0.245539858336    -0.856167706209    -2.222143540491     1.007825032230
         C           -0.606951219718     0.372273578664     0.289933484495    12.000000000000
         H            0.656577581749    -1.371445838497     0.068282017537     1.007825032230
         H            1.532345713323     0.139606617878     0.066527532954     1.007825032230
         C           -0.653803129598     0.324778740426     1.841120497144    12.000000000000
         H           -0.603517323321     1.405428020761    -0.043123832391     1.007825032230
         H           -1.504944167822    -0.081333690350    -0.117726047780     1.007825032230
         H           -0.633832390287     1.323025032996     2.262371945046     1.007825032230
         H           -1.556866627175    -0.163418798409     2.188184417181     1.007825032230
         H            0.192432467839    -0.220545262891     2.242643768507     1.007825032230

  Running in c1 symmetry.

  Rotational constants: A =      0.77812  B =      0.11918  C =      0.11183 [cm^-1]
  Rotational constants: A =  23327.57456  B =   3573.05992  C =   3352.46167 [MHz]
  Nuclear repulsion =  130.059990557204515

  Charge       = 0
  Multiplicity = 1
  Electrons    = 34
  Nalpha       = 17
  Nbeta        = 17

  ==> Algorithm <==

  SCF Algorithm Type is DIRECT.
  DIIS enabled.
  MOM disabled.
  Fractional occupation disabled.
  Guess Type is READ.
  Energy threshold   = 1.00e-08
  Density threshold  = 1.00e-08
  Integral threshold = 1.00e-08

  ==> Primary Basis <==

  -AO BASIS SET INFORMATION:
    Name                   = STO-3G
    Blend                  = STO-3G
    Total number of shells = 22
    Number of primitives   = 66
    Number of AO           = 30
    Number of SO           = 30
    Maximum AM             = 1
    Spherical Harmonics    = TRUE

  -Contraction Scheme:
    Atom   Type   All Primitives // Shells:
   ------ ------ --------------------------
       1     C     6s 3p // 2s 1p 
       2     C     6s 3p // 2s 1p 
       3     H     3s // 1s 
       4     H     3s // 1s 
       5     H     3s // 1s 
       6     C     6s 3p // 2s 1p 
       7     H     3s // 1s 
       8     H     3s // 1s 
       9     C     6s 3p // 2s 1p 
      10     H     3s // 1s 
      11     H     3s // 1s 
      12     H     3s // 1s 
      13     H     3s // 1s 
      14     H     3s // 1s 

   => Loading Basis Set <=

    Name: (STO-3G AUX)
    Role: JKFIT
    Keyword: DF_BASIS_SCF
    atoms 1-2, 6, 9       entry C          line   198 file /Users/blink/psi4conda/share/psi4/basis/def2-universal-jkfit.gbs 
    atoms 3-5, 7-8, 10-14 entry H          line    18 file /Users/blink/psi4conda/share/psi4/basis/def2-universal-jkfit.gbs 

   => Loading Basis Set <=

    Name: STO-3G
    Role: ORBITAL
    Keyword: BASIS
    atoms 1-2, 6, 9       entry C          line    61 file /Users/blink/psi4conda/share/psi4/basis/sto-3g.gbs 
    atoms 3-5, 7-8, 10-14 entry H          line    19 file /Users/blink/psi4conda/share/psi4/basis/sto-3g.gbs 

  Reading orbitals from file /tmp/butane_1.default.26831.180.npy, no projection.

  Starting with a DF guess...

  ==> Integral Setup <==

  DFHelper Memory: AOs need 0.005 GiB; user supplied 0.698 GiB. 
  Using in-core AOs.

  ==> MemDFJK: Density-Fitted J/K Matrices <==

    J tasked:                   Yes
    K tasked:                   Yes
    wK tasked:                   No
    OpenMP threads:               4
    Memory [MiB]:               715
    Algorithm:                 Core
    Schwarz Cutoff:           1E-08
    Mask sparsity (%):       0.6667
    Fitting Condition:        1E-10

   => Auxiliary Basis Set <=

  -AO BASIS SET INFORMATION:
    Name                   = (STO-3G AUX)
    Blend                  = DEF2-UNIVERSAL-JKFIT
    Total number of shells = 160
    Number of primitives   = 212
    Number of AO           = 556
    Number of SO           = 480
    Maximum AM             = 4
    Spherical Harmonics    = TRUE

  -Contraction Scheme:
    Atom   Type   All Primitives // Shells:
   ------ ------ --------------------------
       1     C     14s 10p 6d 2f 1g // 10s 8p 5d 1f 1g 
       2     C     14s 10p 6d 2f 1g // 10s 8p 5d 1f 1g 
       3     H     4s 2p 2d // 2s 2p 2d 
       4     H     4s 2p 2d // 2s 2p 2d 
       5     H     4s 2p 2d // 2s 2p 2d 
       6     C     14s 10p 6d 2f 1g // 10s 8p 5d 1f 1g 
       7     H     4s 2p 2d // 2s 2p 2d 
       8     H     4s 2p 2d // 2s 2p 2d 
       9     C     14s 10p 6d 2f 1g // 10s 8p 5d 1f 1g 
      10     H     4s 2p 2d // 2s 2p 2d 
      11     H     4s 2p 2d // 2s 2p 2d 
      12     H     4s 2p 2d // 2s 2p 2d 
      13     H     4s 2p 2d // 2s 2p 2d 
      14     H     4s 2p 2d // 2s 2p 2d 

  Minimum eigenvalue in the overlap matrix is 2.0113912962E-01.
  Reciprocal condition number of the overlap matrix is 7.7683158327E-02.
    Using symmetric orthogonalization.

  ==> Pre-Iterations <==

  SCF Guess: Orbitals guess was supplied from a previous computation.

   -------------------------------------------------------
    Irrep   Nso     Nmo     Nalpha   Nbeta   Ndocc  Nsocc
   -------------------------------------------------------
     A         30      30      17      17      17       0
   -------------------------------------------------------
    Total      30      30      17      17      17       0
   -------------------------------------------------------

  ==> Iterations <==

                           Total Energy        Delta E     RMS |[F,P]|

   @DF-RHF iter   0:  -155.43694403409751   -1.55437e+02   1.58114e-03 
   @DF-RHF iter   1:  -155.46213035485974   -2.51863e-02   2.63668e-04 DIIS/ADIIS
   @DF-RHF iter   2:  -155.46219363730677   -6.32824e-05   7.81480e-05 DIIS
   @DF-RHF iter   3:  -155.46219977714938   -6.13984e-06   8.64500e-06 DIIS
   @DF-RHF iter   4:  -155.46219983019259   -5.30432e-08   8.18901e-07 DIIS
   @DF-RHF iter   5:  -155.46219983082653   -6.33946e-10   1.69098e-07 DIIS
   @DF-RHF iter   6:  -155.46219983085138   -2.48406e-11   2.51790e-08 DIIS
   @DF-RHF iter   7:  -155.46219983085206   -6.82121e-13   3.43316e-09 DIIS

  DF guess converged.

  ==> DirectJK: Integral-Direct J/K Matrices <==

[...]
        Angle 2-7-11:   59.350
        Angle 2-7-12:   63.136
        Angle 2-7-13:   67.220
        Angle 2-7-14:   89.931
        Angle 3-7-4:   35.036
        Angle 3-7-5:   35.022
        Angle 3-7-6:   62.481
        Angle 3-7-8:   55.069
        Angle 3-7-9:   93.072
        Angle 3-7-10:   50.302
        Angle 3-7-11:   67.729
        Angle 3-7-12:   91.928
        Angle 3-7-13:   91.328
        Angle 3-7-14:  115.319
        Angle 4-7-5:   41.170
        Angle 4-7-6:   97.467
        Angle 4-7-8:   69.426
        Angle 4-7-9:  127.415
        Angle 4-7-10:   85.251
        Angle 4-7-11:   98.322
        Angle 4-7-12:  121.471
        Angle 4-7-13:  126.310
        Angle 4-7-14:  150.150
        Angle 5-7-6:   73.728
        Angle 5-7-8:   90.091
        Angle 5-7-9:  106.586
        Angle 5-7-10:   67.790
        Angle 5-7-11:   62.468
        Angle 5-7-12:  115.632
        Angle 5-7-13:  100.985
        Angle 5-7-14:  121.377
        Angle 6-7-8:   66.124
        Angle 6-7-9:   33.360
        Angle 6-7-10:   13.891
        Angle 6-7-11:   25.647
        Angle 6-7-12:   43.862
        Angle 6-7-13:   29.472
        Angle 6-7-14:   53.404
        Angle 8-7-9:   71.680
        Angle 8-7-10:   55.044
        Angle 8-7-11:   90.002
        Angle 8-7-12:   55.994
        Angle 8-7-13:   76.599
        Angle 8-7-14:   90.083
        Angle 9-7-10:   43.095
        Angle 9-7-11:   47.835
        Angle 9-7-12:   20.005
        Angle 9-7-13:    7.724
        Angle 9-7-14:   22.924
        Angle 10-7-11:   34.958
        Angle 10-7-12:   47.841
        Angle 10-7-13:   41.058
        Angle 10-7-14:   65.016
        Angle 11-7-12:   64.660
        Angle 11-7-13:   40.708
        Angle 11-7-14:   58.909
        Angle 12-7-13:   27.517
        Angle 12-7-14:   34.089
        Angle 13-7-14:   24.052
        Angle 1-8-2:   42.304
        Angle 1-8-3:   25.467
        Angle 1-8-4:   25.753
        Angle 1-8-5:   13.408
        Angle 1-8-6:   72.770
        Angle 1-8-7:   66.089
        Angle 1-8-9:  104.868
        Angle 1-8-10:   72.914
        Angle 1-8-11:   61.772
        Angle 1-8-12:  126.181
        Angle 1-8-13:  102.197
        Angle 1-8-14:  105.201
        Angle 2-8-3:   59.692
        Angle 2-8-4:   60.610
        Angle 2-8-5:   28.909
        Angle 2-8-6:   42.390
        Angle 2-8-7:   36.435
        Angle 2-8-9:   67.013
        Angle 2-8-10:   59.345
        Angle 2-8-11:   28.501
        Angle 2-8-12:   89.937
        Angle 2-8-13:   67.231
        Angle 2-8-14:   63.138
        Angle 3-8-4:   41.169
        Angle 3-8-5:   35.021
        Angle 3-8-6:   73.723
        Angle 3-8-7:   90.084
        Angle 3-8-9:  106.581
        Angle 3-8-10:   62.461
        Angle 3-8-11:   67.788
        Angle 3-8-12:  121.380
        Angle 3-8-13:  100.982
        Angle 3-8-14:  115.622
        Angle 4-8-5:   35.034
        Angle 4-8-6:   97.466
        Angle 4-8-7:   69.426
        Angle 4-8-9:  127.419
        Angle 4-8-10:   98.317
        Angle 4-8-11:   85.253
        Angle 4-8-12:  150.156
        Angle 4-8-13:  126.318
        Angle 4-8-14:  121.475
        Angle 5-8-6:   62.482
        Angle 5-8-7:   55.064
        Angle 5-8-9:   93.076
        Angle 5-8-10:   67.727
        Angle 5-8-11:   50.305
        Angle 5-8-12:  115.326
        Angle 5-8-13:   91.338
        Angle 5-8-14:   91.928
        Angle 6-8-7:   66.122
        Angle 6-8-9:   33.362
        Angle 6-8-10:   25.646
        Angle 6-8-11:   13.890
        Angle 6-8-12:   53.412
        Angle 6-8-13:   29.478
        Angle 6-8-14:   43.857
        Angle 7-8-9:   71.686
        Angle 7-8-10:   89.998
        Angle 7-8-11:   55.041
        Angle 7-8-12:   90.086
        Angle 7-8-13:   76.613
        Angle 7-8-14:   56.001
        Angle 9-8-10:   47.835
        Angle 9-8-11:   43.095
        Angle 9-8-12:   22.925
        Angle 9-8-13:    7.729
        Angle 9-8-14:   20.002
        Angle 10-8-11:   34.957
        Angle 10-8-12:   58.919
        Angle 10-8-13:   40.707
        Angle 10-8-14:   64.654
        Angle 11-8-12:   65.021
        Angle 11-8-13:   41.065
        Angle 11-8-14:   47.834
        Angle 12-8-13:   24.051
        Angle 12-8-14:   34.085
        Angle 13-8-14:   27.520
        Angle 1-9-2:   12.575
        Angle 1-9-3:   14.603
        Angle 1-9-4:    9.837
        Angle 1-9-5:   14.602
        Angle 1-9-6:   21.249
        Angle 1-9-7:   32.009
        Angle 1-9-8:   32.010
        Angle 1-9-10:   43.123
        Angle 1-9-11:   43.126
        Angle 1-9-12:   99.238
        Angle 1-9-13:  131.854
        Angle 1-9-14:   99.252
        Angle 2-9-3:   24.061
        Angle 2-9-4:    2.738
        Angle 2-9-5:   24.059
        Angle 2-9-6:   33.824
        Angle 2-9-7:   22.993
        Angle 2-9-8:   22.994
        Angle 2-9-10:   53.664
        Angle 2-9-11:   53.665
        Angle 2-9-12:   91.939
        Angle 2-9-13:  144.429
        Angle 2-9-14:   91.957
        Angle 3-9-4:   21.743
        Angle 3-9-5:   23.878
        Angle 3-9-6:   17.423
        Angle 3-9-7:   46.049
        Angle 3-9-8:   34.506
        Angle 3-9-10:   29.603
        Angle 3-9-11:   45.433
        Angle 3-9-12:   93.964
        Angle 3-9-13:  122.568
        Angle 3-9-14:  113.855
        Angle 4-9-5:   21.743
        Angle 4-9-6:   31.087
        Angle 4-9-7:   24.713
        Angle 4-9-8:   24.712
        Angle 4-9-10:   51.310
        Angle 4-9-11:   51.313
        Angle 4-9-12:   93.540
        Angle 4-9-13:  141.691
        Angle 4-9-14:   93.560
        Angle 5-9-6:   17.420
        Angle 5-9-7:   34.503
        Angle 5-9-8:   46.048
        Angle 5-9-10:   45.429
        Angle 5-9-11:   29.606
        Angle 5-9-12:  113.840
        Angle 5-9-13:  122.576
        Angle 5-9-14:   93.971
        Angle 6-9-7:   50.533
        Angle 6-9-8:   50.537
        Angle 6-9-10:   28.387
        Angle 6-9-11:   28.387
        Angle 6-9-12:  110.743
        Angle 6-9-13:  110.604
        Angle 6-9-14:  110.743
        Angle 7-9-8:   36.634
        Angle 7-9-10:   75.132
        Angle 7-9-11:   59.248
        Angle 7-9-12:   98.613
        Angle 7-9-13:  152.104
        Angle 7-9-14:   68.965
        Angle 8-9-10:   59.252
        Angle 8-9-11:   75.136
        Angle 8-9-12:   68.946
        Angle 8-9-13:  152.086
        Angle 8-9-14:   98.637
        Angle 10-9-11:   47.818
        Angle 10-9-12:   95.720
        Angle 10-9-13:   94.408
        Angle 10-9-14:  139.116
        Angle 11-9-12:  139.116
        Angle 11-9-13:   94.420
        Angle 11-9-14:   95.706
        Angle 12-9-13:  108.240
        Angle 12-9-14:  108.176
        Angle 13-9-14:  108.238
        Angle 1-10-2:   33.360
        Angle 1-10-3:   22.924
        Angle 1-10-4:    7.726
        Angle 1-10-5:   20.004
        Angle 1-10-6:   67.011
        Angle 1-10-7:   43.094
        Angle 1-10-8:   47.836
        Angle 1-10-9:  104.867
        Angle 1-10-11:   71.686
        Angle 1-10-12:  106.576
        Angle 1-10-13:  127.423
        Angle 1-10-14:   93.078
        Angle 2-10-3:   53.407
        Angle 2-10-4:   29.477
        Angle 2-10-5:   43.859
        Angle 2-10-6:   42.391
        Angle 2-10-7:   13.891
        Angle 2-10-8:   25.646
        Angle 2-10-9:   72.771
        Angle 2-10-11:   66.125
        Angle 2-10-12:   73.719
        Angle 2-10-13:   97.471
        Angle 2-10-14:   62.487
        Angle 3-10-4:   24.049
        Angle 3-10-5:   34.087
        Angle 3-10-6:   89.934
        Angle 3-10-7:   65.018
        Angle 3-10-8:   58.914
        Angle 3-10-9:  126.177
        Angle 3-10-11:   90.088
        Angle 3-10-12:  121.370
        Angle 3-10-13:  150.158
        Angle 3-10-14:  115.327
        Angle 4-10-5:   27.518
        Angle 4-10-6:   67.228
        Angle 4-10-7:   41.063
        Angle 4-10-8:   40.709
        Angle 4-10-9:  102.196
        Angle 4-10-11:   76.610
        Angle 4-10-12:  100.978
        Angle 4-10-13:  126.320
        Angle 4-10-14:   91.339
        Angle 5-10-6:   63.137
        Angle 5-10-7:   47.836
        Angle 5-10-8:   64.657
        Angle 5-10-9:  105.203
        Angle 5-10-11:   56.000
        Angle 5-10-12:  115.620
        Angle 5-10-13:  121.481
        Angle 5-10-14:   91.931
        Angle 6-10-7:   28.501
        Angle 6-10-8:   59.347
        Angle 6-10-9:   42.306
        Angle 6-10-11:   36.435
        Angle 6-10-12:   59.691
        Angle 6-10-13:   60.616
        Angle 6-10-14:   28.912
        Angle 7-10-8:   34.958
        Angle 7-10-9:   61.773
        Angle 7-10-11:   55.043
        Angle 7-10-12:   67.784
        Angle 7-10-13:   85.257
        Angle 7-10-14:   50.309
        Angle 8-10-9:   72.913
        Angle 8-10-11:   90.000
        Angle 8-10-12:   62.456
        Angle 8-10-13:   98.317
        Angle 8-10-14:   67.731
        Angle 9-10-11:   66.092
        Angle 9-10-12:   25.466
        Angle 9-10-13:   25.756
        Angle 9-10-14:   13.408
        Angle 11-10-12:   90.085
        Angle 11-10-13:   69.432
        Angle 11-10-14:   55.064
        Angle 12-10-13:   41.170
        Angle 12-10-14:   35.021
        Angle 13-10-14:   35.034
        Angle 1-11-2:   33.359
        Angle 1-11-3:   20.004
        Angle 1-11-4:    7.724
        Angle 1-11-5:   22.924
        Angle 1-11-6:   67.007
        Angle 1-11-7:   47.833
        Angle 1-11-8:   43.095
        Angle 1-11-9:  104.863
        Angle 1-11-10:   71.681
        Angle 1-11-12:   93.069
        Angle 1-11-13:  127.409
        Angle 1-11-14:  106.588
        Angle 2-11-3:   43.857
        Angle 2-11-4:   29.475
        Angle 2-11-5:   53.405
        Angle 2-11-6:   42.389
        Angle 2-11-7:   25.647
        Angle 2-11-8:   13.891
        Angle 2-11-9:   72.769
        Angle 2-11-10:   66.122
        Angle 2-11-12:   62.477
        Angle 2-11-13:   97.463
        Angle 2-11-14:   73.732
        Angle 3-11-4:   27.517
        Angle 3-11-5:   34.088
        Angle 3-11-6:   63.132
        Angle 3-11-7:   64.655
        Angle 3-11-8:   47.837
        Angle 3-11-9:  105.197
        Angle 3-11-10:   55.994
        Angle 3-11-12:   91.924
        Angle 3-11-13:  121.462
        Angle 3-11-14:  115.630
        Angle 4-11-5:   24.050
        Angle 4-11-6:   67.222
        Angle 4-11-7:   40.707
        Angle 4-11-8:   41.062
        Angle 4-11-9:  102.192
        Angle 4-11-10:   76.603
        Angle 4-11-12:   91.328
        Angle 4-11-13:  126.308
        Angle 4-11-14:  100.990
        Angle 5-11-6:   89.929
        Angle 5-11-7:   58.911
        Angle 5-11-8:   65.017
        Angle 5-11-9:  126.174
        Angle 5-11-10:   90.081
        Angle 5-11-12:  115.316
        Angle 5-11-13:  150.145
        Angle 5-11-14:  121.382
        Angle 6-11-7:   59.347
        Angle 6-11-8:   28.498
        Angle 6-11-9:   42.305
        Angle 6-11-10:   36.435
        Angle 6-11-12:   28.911
        Angle 6-11-13:   60.606
        Angle 6-11-14:   59.700
        Angle 7-11-8:   34.957
        Angle 7-11-9:   72.917
        Angle 7-11-10:   90.000
        Angle 7-11-12:   67.724
        Angle 7-11-13:   98.320
        Angle 7-11-14:   62.472
        Angle 8-11-9:   61.769
        Angle 8-11-10:   55.043
        Angle 8-11-12:   50.299
        Angle 8-11-13:   85.246
        Angle 8-11-14:   67.793
        Angle 9-11-10:   66.090
        Angle 9-11-12:   13.408
        Angle 9-11-13:   25.753
        Angle 9-11-14:   25.468
        Angle 10-11-12:   55.070
        Angle 10-11-13:   69.418
        Angle 10-11-14:   90.090
        Angle 12-11-13:   35.035
        Angle 12-11-14:   35.020
        Angle 13-11-14:   41.169
        Angle 1-12-2:    9.417
        Angle 1-12-3:   14.057
        Angle 1-12-4:   10.715
        Angle 1-12-5:   11.956
        Angle 1-12-6:   28.715
        Angle 1-12-7:   29.368
        Angle 1-12-8:   24.219
        Angle 1-12-9:   66.159
        Angle 1-12-10:   38.915
        Angle 1-12-11:   40.880
        Angle 1-12-13:   94.750
        Angle 1-12-14:   78.069
        Angle 2-12-3:   23.273
        Angle 2-12-4:    8.576
        Angle 2-12-5:   14.295
        Angle 2-12-6:   32.951
        Angle 2-12-7:   20.147
        Angle 2-12-8:   22.712
        Angle 2-12-9:   65.419
        Angle 2-12-10:   47.445
        Angle 2-12-11:   42.888
        Angle 2-12-13:   97.216
        Angle 2-12-14:   71.832
        Angle 3-12-4:   20.881
        Angle 3-12-5:   21.524
        Angle 3-12-6:   30.779
        Angle 3-12-7:   43.381
        Angle 3-12-8:   28.752
        Angle 3-12-9:   71.978
        Angle 3-12-10:   29.873
        Angle 3-12-11:   44.693
        Angle 3-12-13:   94.514
        Angle 3-12-14:   90.006
        Angle 4-12-5:   20.815
        Angle 4-12-6:   38.917
        Angle 4-12-7:   25.582
        Angle 4-12-8:   14.593
        Angle 4-12-9:   73.739
        Angle 4-12-10:   48.940
        Angle 4-12-11:   50.165
        Angle 4-12-13:  104.497
        Angle 4-12-14:   79.718
        Angle 5-12-6:   18.656
        Angle 5-12-7:   28.199
        Angle 5-12-8:   35.301
        Angle 5-12-9:   54.204
        Angle 5-12-10:   36.175
        Angle 5-12-11:   29.379
        Angle 5-12-13:   83.682
        Angle 5-12-14:   68.482
        Angle 6-12-7:   43.519
        Angle 6-12-8:   52.933
        Angle 6-12-9:   41.450
        Angle 6-12-10:   25.571
        Angle 6-12-11:   13.988
        Angle 6-12-13:   66.099
        Angle 6-12-14:   66.171
        Angle 7-12-8:   33.920
        Angle 7-12-9:   61.381
        Angle 7-12-10:   64.374
        Angle 7-12-11:   47.616
        Angle 7-12-13:   96.997
        Angle 7-12-14:   56.009
        Angle 8-12-9:   88.129
        Angle 8-12-10:   58.624
        Angle 8-12-11:   64.681
        Angle 8-12-13:  118.896
        Angle 8-12-14:   89.929
        Angle 9-12-10:   58.815
        Angle 9-12-11:   27.476
        Angle 9-12-13:   35.880
        Angle 9-12-14:   35.912
        Angle 10-12-11:   34.845
        Angle 10-12-13:   68.763
        Angle 10-12-14:   89.909
        Angle 11-12-13:   54.381
        Angle 11-12-14:   55.063
        Angle 13-12-14:   60.013
        Angle 1-13-2:   13.118
        Angle 1-13-3:   12.722
        Angle 1-13-4:    6.871
        Angle 1-13-5:   12.721
        Angle 1-13-6:    3.229
        Angle 1-13-7:   26.495
        Angle 1-13-8:   26.495
        Angle 1-13-9:   38.308
        Angle 1-13-10:   27.869
        Angle 1-13-11:   27.875
        Angle 1-13-12:   63.507
        Angle 1-13-14:   63.515
        Angle 2-13-3:   22.959
        Angle 2-13-4:    6.247
        Angle 2-13-5:   22.956
        Angle 2-13-6:   16.347
        Angle 2-13-7:   16.634
        Angle 2-13-8:   16.635
        Angle 2-13-9:   25.190
        Angle 2-13-10:   37.724
        Angle 2-13-11:   37.726
        Angle 2-13-12:   52.917
        Angle 2-13-14:   52.927
        Angle 3-13-4:   17.625
        Angle 3-13-5:   20.587
        Angle 3-13-6:   11.148
        Angle 3-13-7:   38.506
        Angle 3-13-8:   30.081
        Angle 3-13-9:   46.716
        Angle 3-13-10:   15.251
        Angle 3-13-11:   32.952
        Angle 3-13-12:   64.605
        Angle 3-13-14:   75.515
        Angle 4-13-5:   17.626
        Angle 4-13-6:   10.100
        Angle 4-13-7:   20.909
        Angle 4-13-8:   20.906
        Angle 4-13-9:   31.437
        Angle 4-13-10:   32.776
        Angle 4-13-11:   32.783
        Angle 4-13-12:   57.877
        Angle 4-13-14:   57.889
        Angle 5-13-6:   11.135
        Angle 5-13-7:   30.078
        Angle 5-13-8:   38.505
        Angle 5-13-9:   46.709
        Angle 5-13-10:   32.943
        Angle 5-13-11:   15.258
        Angle 5-13-12:   75.504
        Angle 5-13-14:   64.606
        Angle 6-13-7:   29.296
        Angle 6-13-8:   29.302
        Angle 6-13-9:   41.537
        Angle 6-13-10:   25.849
        Angle 6-13-11:   25.846
        Angle 6-13-12:   66.203
        Angle 6-13-14:   66.203
        Angle 7-13-8:   26.787
        Angle 7-13-9:   20.173
        Angle 7-13-10:   53.684
        Angle 7-13-11:   40.972
        Angle 7-13-12:   55.486
        Angle 7-13-14:   37.061
        Angle 8-13-9:   20.185
        Angle 8-13-10:   40.976
        Angle 8-13-11:   53.689
        Angle 8-13-12:   37.052
        Angle 8-13-14:   55.502
        Angle 9-13-10:   59.836
        Angle 9-13-11:   59.827
        Angle 9-13-12:   35.880
        Angle 9-13-14:   35.881
        Angle 10-13-11:   41.150
        Angle 10-13-12:   70.067
        Angle 10-13-14:   90.591
        Angle 11-13-12:   90.585
        Angle 11-13-14:   70.054
        Angle 12-13-14:   59.973
        Angle 1-14-2:    9.419
        Angle 1-14-3:   11.956
        Angle 1-14-4:   10.714
        Angle 1-14-5:   14.057
        Angle 1-14-6:   28.707
        Angle 1-14-7:   24.218
        Angle 1-14-8:   29.368
        Angle 1-14-9:   66.147
        Angle 1-14-10:   40.875
        Angle 1-14-11:   38.911
        Angle 1-14-12:   78.053
        Angle 1-14-13:   94.742
        Angle 2-14-3:   14.299
        Angle 2-14-4:    8.573
        Angle 2-14-5:   23.273
        Angle 2-14-6:   32.945
        Angle 2-14-7:   22.709
        Angle 2-14-8:   20.145
        Angle 2-14-9:   65.403
        Angle 2-14-10:   42.886
        Angle 2-14-11:   47.444
        Angle 2-14-12:   71.813
        Angle 2-14-13:   97.205
        Angle 3-14-4:   20.814
        Angle 3-14-5:   21.523
        Angle 3-14-6:   18.647
        Angle 3-14-7:   35.302
        Angle 3-14-8:   28.202
        Angle 3-14-9:   54.190
        Angle 3-14-10:   29.373
        Angle 3-14-11:   36.171
        Angle 3-14-12:   68.471
        Angle 3-14-13:   83.670
        Angle 4-14-5:   20.879
        Angle 4-14-6:   38.907
        Angle 4-14-7:   14.594
        Angle 4-14-8:   25.579
        Angle 4-14-9:   73.720
        Angle 4-14-10:   50.158
        Angle 4-14-11:   48.935
        Angle 4-14-12:   79.695
        Angle 4-14-13:  104.484
        Angle 5-14-6:   30.774
        Angle 5-14-7:   28.750
        Angle 5-14-8:   43.380
        Angle 5-14-9:   71.972
        Angle 5-14-10:   44.690
        Angle 5-14-11:   29.870
        Angle 5-14-12:   89.994
        Angle 5-14-13:   94.515
        Angle 6-14-7:   52.925
        Angle 6-14-8:   43.514
        Angle 6-14-9:   41.450
        Angle 6-14-10:   13.988
        Angle 6-14-11:   25.574
        Angle 6-14-12:   66.171
        Angle 6-14-13:   66.099
        Angle 7-14-8:   33.916
        Angle 7-14-9:   88.111
        Angle 7-14-10:   64.675
        Angle 7-14-11:   58.620
        Angle 7-14-12:   89.902
        Angle 7-14-13:  118.887
        Angle 8-14-9:   61.361
        Angle 8-14-10:   47.615
        Angle 8-14-11:   64.373
        Angle 8-14-12:   55.986
        Angle 8-14-13:   96.978
        Angle 9-14-10:   27.476
        Angle 9-14-11:   58.825
        Angle 9-14-12:   35.912
        Angle 9-14-13:   35.881
        Angle 10-14-11:   34.846
        Angle 10-14-12:   55.071
        Angle 10-14-13:   54.374
        Angle 11-14-12:   89.916
        Angle 11-14-13:   68.776
        Angle 12-14-13:   60.014


    Molecular point group: c1
    Full point group: C1

    Geometry (in Angstrom), charge = 0, multiplicity = 1:

    C       
    C             1    1.541087
    H             1    1.086007      2  110.736674
    H             1    1.086021      2  110.610975      3  119.995246
    H             1    1.086011      2  110.743044      3 -120.005800
    C             2    1.545029      1  112.450919      3   60.001407
    H             2    1.088521      1  109.304771      6  121.514624
    H             2    1.088523      1  109.310598      6 -121.521043
    C             6    1.541104      2  112.449192      1    dihedral
    H             6    1.088519      2  109.249888      9  121.547439
    H             6    1.088527      2  109.253740      9 -121.551985
    H             9    1.086015      6  110.743376     10  -61.531260
    H             9    1.086019      6  110.604469     10   58.466059
    H             9    1.086011      6  110.743315     10  178.460924

    dihedral  = -179.9961188104

