
    -----------------------------------------------------------------------
          Psi4: An Open-Source Ab Initio Electronic Structure Package
                               Psi4 1.9.1 release

                         Git: Rev {} zzzzzzz 


    D. G. A. Smith, L. A. Burns, A. C. Simmonett, R. M. Parrish,
    M. C. Schieber, R. Galvelis, P. Kraus, H. Kruse, R. Di Remigio,
    A. Alenaizan, A. M. James, S. Lehtola, J. P. Misiewicz, M. Scheurer,
    R. A. Shaw, J. B. Schriber, Y. Xie, Z. L. Glick, D. A. Sirianni,
    J. S. O'Brien, J. M. Waldrop, A. Kumar, E. G. Hohenstein,
    B. P. Pritchard, B. R. Brooks, H. F. Schaefer III, A. Yu. Sokolov,
    K. Patkowski, A. E. DePrince III, U. Bozkaya, R. A. King,
    F. A. Evangelista, J. M. Turney, T. D. Crawford, C. D. Sherrill,
    J. Chem. Phys. 152(18) 184108 (2020). https://doi.org/10.1063/5.0006002

                            Additional Code Authors
    E. T. Seidl, C. L. Janssen, E. F. Valeev, M. L. Leininger,
    J. F. Gonthier, R. M. Richard, H. R. McAlexander, M. Saitow, X. Wang,
    P. Verma, M. H. Lechner, A. Jiang, S. Behnle, A. G. Heide,
    M. F. Herbst, and D. L. Poole

             Previous Authors, Complete List of Code Contributors,
                       and Citations for Specific Modules
    https://github.com/psi4/psi4/blob/master/codemeta.json
    https://github.com/psi4/psi4/graphs/contributors
    http://psicode.org/psi4manual/master/introduction.html#citing-psifour

    -----------------------------------------------------------------------


    Psi4 started on: Thursday, 09 May 2024 02:21PM

    Process ID: 45084
    Host:       Barrys-MacBook-Pro.local
    PSIDATADIR: /Users/blink/psi4conda/share/psi4
    Memory:     953.7 MiB
    Threads:    4
    Molecule: Setting geometry variable dihedral to 110.000000

Scratch directory: /tmp/
gradient() will perform analytic gradient computation.
   => Libint2 <=

    Primary   basis highest AM E, G, H:  5, 4, 3
    Auxiliary basis highest AM E, G, H:  6, 5, 4
    Onebody   basis highest AM E, G, H:  6, 5, 4
    Solid Harmonics ordering:            Gaussian

*** tstart() called on Barrys-MacBook-Pro.local
*** at Fri May 10 14:05:27 2024

   => Loading Basis Set <=

    Name: STO-3G
    Role: ORBITAL
    Keyword: BASIS
    atoms 1-2, 6, 9       entry C          line    61 file /Users/blink/psi4conda/share/psi4/basis/sto-3g.gbs 
    atoms 3-5, 7-8, 10-14 entry H          line    19 file /Users/blink/psi4conda/share/psi4/basis/sto-3g.gbs 


         ---------------------------------------------------------
                                   SCF
               by Justin Turney, Rob Parrish, Andy Simmonett
                          and Daniel G. A. Smith
                              RHF Reference
                        4 Threads,    953 MiB Core
         ---------------------------------------------------------

  ==> Geometry <==

    Molecular point group: c1
    Full point group: C1

    Geometry (in Angstrom), charge = 0, multiplicity = 1:

       Center              X                  Y                   Z               Mass       
    ------------   -----------------  -----------------  -----------------  -----------------
         C            0.859344862994    -0.157412211465    -1.636326234066    12.000000000000
         C            0.859344862994    -0.157412211465    -0.094708061096    12.000000000000
         H            0.859344862994     0.858290676819    -2.020784475810     1.007825032230
         H            1.744500686290    -0.662051003866    -2.012043252647     1.007825032230
         H           -0.011984498926    -0.670143568106    -2.030388988538     1.007825032230
         C           -0.321817660409     0.621056122460     0.531924510123    12.000000000000
         H            0.843431624820    -1.184676762336     0.265306158148     1.007825032230
         H            1.788666146046     0.288923479687     0.254923563932     1.007825032230
         C           -1.364331747221    -0.278164009276     1.225577588495    12.000000000000
         H            0.078010709131     1.321178235678     1.263403879463     1.007825032230
         H           -0.812350804311     1.211485692951    -0.240025079406     1.007825032230
         H           -2.129538326420     0.329938113600     1.698858861775     1.007825032230
         H           -1.851595134812    -0.937291407348     0.514578789770     1.007825032230
         H           -0.895937260750    -0.889850636436     1.991022941971     1.007825032230

  Running in c1 symmetry.

  Rotational constants: A =      0.56829  B =      0.12830  C =      0.12518 [cm^-1]
  Rotational constants: A =  17036.95517  B =   3846.25265  C =   3752.82500 [MHz]
  Nuclear repulsion =  130.727732239626846

  Charge       = 0
  Multiplicity = 1
  Electrons    = 34
  Nalpha       = 17
  Nbeta        = 17

  ==> Algorithm <==

  SCF Algorithm Type is DIRECT.
  DIIS enabled.
  MOM disabled.
  Fractional occupation disabled.
  Guess Type is READ.
  Energy threshold   = 1.00e-08
  Density threshold  = 1.00e-08
  Integral threshold = 1.00e-08

  ==> Primary Basis <==

  -AO BASIS SET INFORMATION:
    Name                   = STO-3G
    Blend                  = STO-3G
    Total number of shells = 22
    Number of primitives   = 66
    Number of AO           = 30
    Number of SO           = 30
    Maximum AM             = 1
    Spherical Harmonics    = TRUE

  -Contraction Scheme:
    Atom   Type   All Primitives // Shells:
   ------ ------ --------------------------
       1     C     6s 3p // 2s 1p 
       2     C     6s 3p // 2s 1p 
       3     H     3s // 1s 
       4     H     3s // 1s 
       5     H     3s // 1s 
       6     C     6s 3p // 2s 1p 
       7     H     3s // 1s 
       8     H     3s // 1s 
       9     C     6s 3p // 2s 1p 
      10     H     3s // 1s 
      11     H     3s // 1s 
      12     H     3s // 1s 
      13     H     3s // 1s 
      14     H     3s // 1s 

   => Loading Basis Set <=

    Name: (STO-3G AUX)
    Role: JKFIT
    Keyword: DF_BASIS_SCF
    atoms 1-2, 6, 9       entry C          line   198 file /Users/blink/psi4conda/share/psi4/basis/def2-universal-jkfit.gbs 
    atoms 3-5, 7-8, 10-14 entry H          line    18 file /Users/blink/psi4conda/share/psi4/basis/def2-universal-jkfit.gbs 

   => Loading Basis Set <=

    Name: STO-3G
    Role: ORBITAL
    Keyword: BASIS
    atoms 1-2, 6, 9       entry C          line    61 file /Users/blink/psi4conda/share/psi4/basis/sto-3g.gbs 
    atoms 3-5, 7-8, 10-14 entry H          line    19 file /Users/blink/psi4conda/share/psi4/basis/sto-3g.gbs 

  Reading orbitals from file /tmp/butane_eclipsed_2.default.45084.180.npy, no projection.

  Starting with a DF guess...

  ==> Integral Setup <==

  DFHelper Memory: AOs need 0.005 GiB; user supplied 0.698 GiB. 
  Using in-core AOs.

  ==> MemDFJK: Density-Fitted J/K Matrices <==

    J tasked:                   Yes
    K tasked:                   Yes
    wK tasked:                   No
    OpenMP threads:               4
    Memory [MiB]:               715
    Algorithm:                 Core
    Schwarz Cutoff:           1E-08
    Mask sparsity (%):       0.6667
    Fitting Condition:        1E-10

   => Auxiliary Basis Set <=

  -AO BASIS SET INFORMATION:
    Name                   = (STO-3G AUX)
    Blend                  = DEF2-UNIVERSAL-JKFIT
    Total number of shells = 160
    Number of primitives   = 212
    Number of AO           = 556
    Number of SO           = 480
    Maximum AM             = 4
    Spherical Harmonics    = TRUE

  -Contraction Scheme:
    Atom   Type   All Primitives // Shells:
   ------ ------ --------------------------
       1     C     14s 10p 6d 2f 1g // 10s 8p 5d 1f 1g 
       2     C     14s 10p 6d 2f 1g // 10s 8p 5d 1f 1g 
       3     H     4s 2p 2d // 2s 2p 2d 
       4     H     4s 2p 2d // 2s 2p 2d 
       5     H     4s 2p 2d // 2s 2p 2d 
       6     C     14s 10p 6d 2f 1g // 10s 8p 5d 1f 1g 
       7     H     4s 2p 2d // 2s 2p 2d 
       8     H     4s 2p 2d // 2s 2p 2d 
       9     C     14s 10p 6d 2f 1g // 10s 8p 5d 1f 1g 
      10     H     4s 2p 2d // 2s 2p 2d 
      11     H     4s 2p 2d // 2s 2p 2d 
      12     H     4s 2p 2d // 2s 2p 2d 
      13     H     4s 2p 2d // 2s 2p 2d 
      14     H     4s 2p 2d // 2s 2p 2d 

  Minimum eigenvalue in the overlap matrix is 2.0029905367E-01.
  Reciprocal condition number of the overlap matrix is 7.7351861978E-02.
    Using symmetric orthogonalization.

  ==> Pre-Iterations <==

  SCF Guess: Orbitals guess was supplied from a previous computation.

   -------------------------------------------------------
    Irrep   Nso     Nmo     Nalpha   Nbeta   Ndocc  Nsocc
   -------------------------------------------------------
     A         30      30      17      17      17       0
   -------------------------------------------------------
    Total      30      30      17      17      17       0
   -------------------------------------------------------

  ==> Iterations <==

                           Total Energy        Delta E     RMS |[F,P]|

   @DF-RHF iter   0:  -151.05657502189604   -1.51057e+02   3.91515e-02 
   @DF-RHF iter   1:  -154.94075936985223   -3.88418e+00   2.87124e-02 ADIIS/DIIS
   @DF-RHF iter   2:  -155.43618048792064   -4.95421e-01   6.42081e-03 ADIIS/DIIS
   @DF-RHF iter   3:  -155.46049042946748   -2.43099e-02   1.05878e-03 ADIIS/DIIS
   @DF-RHF iter   4:  -155.46168385439074   -1.19342e-03   1.68972e-04 ADIIS/DIIS
   @DF-RHF iter   5:  -155.46171119837567   -2.73440e-05   3.76885e-05 DIIS
   @DF-RHF iter   6:  -155.46171260933525   -1.41096e-06   8.28698e-06 DIIS
   @DF-RHF iter   7:  -155.46171268192546   -7.25902e-08   1.02425e-06 DIIS
   @DF-RHF iter   8:  -155.46171268289729   -9.71824e-10   1.93559e-07 DIIS
   @DF-RHF iter   9:  -155.46171268293267   -3.53850e-11   2.31847e-08 DIIS
   @DF-RHF iter  10:  -155.46171268293313   -4.54747e-13   3.88552e-09 DIIS

  DF guess converged.

  ==> DirectJK: Integral-Direct J/K Matrices <==

    J tasked:                  Yes
    K tasked:                  Yes
    wK tasked:                  No
    Integrals threads:           4
    Screening Type:           CSAM
    Screening Cutoff:        1E-08
    Incremental Fock:           No

   @RHF iter  11:  -155.46119759166021   -1.55461e+02   4.37936e-06 DIIS
   @RHF iter  12:  -155.46119760007076   -8.41055e-09   7.37117e-07 DIIS
   @RHF iter  13:  -155.46119760034316   -2.72394e-10   1.20535e-07 DIIS
   @RHF iter  14:  -155.46119760035481   -1.16529e-11   2.06091e-08 DIIS
   @RHF iter  15:  -155.46119760035515   -3.41061e-13   9.98384e-10 DIIS
  Energy and wave function converged.


  ==> Post-Iterations <==

    Orbital Energies [Eh]
    ---------------------

    Doubly Occupied:                                                      

       1A    -11.037004     2A    -11.036668     3A    -11.031862  
       4A    -11.031856     5A     -1.026227     6A     -0.941516  
       7A     -0.832829     8A     -0.754072     9A     -0.597014  
      10A     -0.576105    11A     -0.550724    12A     -0.519419  
      13A     -0.484608    14A     -0.478664    15A     -0.431327  
      16A     -0.421905    17A     -0.415591  

    Virtual:                                                              

      18A      0.599034    19A      0.612208    20A      0.638248  
      21A      0.679807    22A      0.693114    23A      0.709266  
      24A      0.743965    25A      0.755687    26A      0.779592  
      27A      0.791214    28A      0.792865    29A      0.822640  
      30A      0.848307  

    Final Occupation by Irrep:
              A 
    DOCC [    17 ]
    NA   [    17 ]
    NB   [    17 ]

  @RHF Final Energy:  -155.46119760035515

   => Energetics <=

    Nuclear Repulsion Energy =            130.7277322396268460
    One-Electron Energy =                -468.0430767301072592
    Two-Electron Energy =                 181.8541468901252642
    Total Energy =                       -155.4611976003551490

Computation Completed


Properties will be evaluated at   0.000000,   0.000000,   0.000000 [a0]

Properties computed using the SCF density matrix


 Multipole Moments:

 ------------------------------------------------------------------------------------
     Multipole            Electronic (a.u.)      Nuclear  (a.u.)        Total (a.u.)
 ------------------------------------------------------------------------------------

 L = 1.  Multiply by 2.5417464519 to convert [e a0] to [Debye]
 Dipole X            :          0.3697372           -0.3632244            0.0065128
 Dipole Y            :          0.3189171           -0.3132997            0.0056174
 Dipole Z            :          0.3007385           -0.2954413            0.0052973
 Magnitude           :                                                    0.0101011

 ------------------------------------------------------------------------------------

*** tstop() called on Barrys-MacBook-Pro.local at Fri May 10 14:05:28 2024
Module time:
	user time   =       2.74 seconds =       0.05 minutes
	system time =       0.04 seconds =       0.00 minutes
	total time  =          1 seconds =       0.02 minutes
Total time:
	user time   =    3571.77 seconds =      59.53 minutes
	system time =      59.03 seconds =       0.98 minutes
	total time  =      85444 seconds =    1424.07 minutes

*** tstart() called on Barrys-MacBook-Pro.local
*** at Fri May 10 14:05:28 2024


         ------------------------------------------------------------
                                   SCF GRAD                          
                          Rob Parrish, Justin Turney,                
                       Andy Simmonett, and Alex Sokolov              
         ------------------------------------------------------------

  ==> Geometry <==

    Molecular point group: c1
    Full point group: C1

    Geometry (in Angstrom), charge = 0, multiplicity = 1:

       Center              X                  Y                   Z               Mass       
    ------------   -----------------  -----------------  -----------------  -----------------
         C            0.859344862994    -0.157412211465    -1.636326234066    12.000000000000
         C            0.859344862994    -0.157412211465    -0.094708061096    12.000000000000
         H            0.859344862994     0.858290676819    -2.020784475810     1.007825032230
         H            1.744500686290    -0.662051003866    -2.012043252647     1.007825032230
         H           -0.011984498926    -0.670143568106    -2.030388988538     1.007825032230
         C           -0.321817660409     0.621056122460     0.531924510123    12.000000000000
         H            0.843431624820    -1.184676762336     0.265306158148     1.007825032230
         H            1.788666146046     0.288923479687     0.254923563932     1.007825032230
         C           -1.364331747221    -0.278164009276     1.225577588495    12.000000000000
         H            0.078010709131     1.321178235678     1.263403879463     1.007825032230
         H           -0.812350804311     1.211485692951    -0.240025079406     1.007825032230
         H           -2.129538326420     0.329938113600     1.698858861775     1.007825032230
         H           -1.851595134812    -0.937291407348     0.514578789770     1.007825032230
         H           -0.895937260750    -0.889850636436     1.991022941971     1.007825032230

  Nuclear repulsion =  130.727732239626818

  ==> Basis Set <==

  -AO BASIS SET INFORMATION:
    Name                   = STO-3G
    Blend                  = STO-3G
    Total number of shells = 22
    Number of primitives   = 66
    Number of AO           = 30
    Number of SO           = 30
    Maximum AM             = 1
    Spherical Harmonics    = TRUE

  -Contraction Scheme:
    Atom   Type   All Primitives // Shells:
   ------ ------ --------------------------
       1     C     6s 3p // 2s 1p 
       2     C     6s 3p // 2s 1p 
       3     H     3s // 1s 
       4     H     3s // 1s 
       5     H     3s // 1s 
       6     C     6s 3p // 2s 1p 
       7     H     3s // 1s 
       8     H     3s // 1s 
       9     C     6s 3p // 2s 1p 
      10     H     3s // 1s 
      11     H     3s // 1s 
      12     H     3s // 1s 
      13     H     3s // 1s 
      14     H     3s // 1s 

  ==> DirectJKGrad: Integral-Direct SCF Gradients <==

    Gradient:                    1
    J tasked:                  Yes
    K tasked:                  Yes
    wK tasked:                  No
    Integrals threads:           4
    Schwarz Cutoff:          1E-08


  -Nuclear Gradient:
     Atom            X                  Y                   Z
    ------   -----------------  -----------------  -----------------
       1       -1.387269748764     0.489787137573     5.724109403489
       2       -4.156235273764     1.676460882123    -1.313738752890
       3       -0.185610310211    -1.732964723627     1.236339642907
       4       -1.641313268973     0.906554310158     1.094845114185
       5        1.344632832074     0.977238563125     1.289069849143
       6        1.014570289830    -4.386303944350    -1.241645153361
       7       -0.452065890070     2.087779290069    -0.699505182362
       8       -2.074012584628    -0.696836904255    -0.749345322381
       9        4.456043657107     2.157182205572    -3.228014137316
      10       -0.656775291114    -1.658604274288    -1.471838039615
      11        1.100374721606    -1.528580612322     1.226829132377
      12        1.667228049487    -0.884203070234    -1.073764516545
      13        1.345815441306     1.343415395552     0.899304244256
      14       -0.375382623887     1.249075744904    -1.692646281888


  -Core Hamiltonian Gradient:
     Atom            X                  Y                   Z
    ------   -----------------  -----------------  -----------------
       1        2.900073546902    -1.001998868009   -10.658776394296
       2        7.464723908722    -2.687025819843     1.936677334226
       3        0.357931038640     5.045486908545    -3.045250557482
       4        4.556026790590    -2.538725555604    -2.717530568236
       5       -4.065205615931    -2.768966797211    -3.192985209137
       6       -1.875829326219     7.507719803339     2.609237477839
       7        0.812455951713    -5.931215270126     2.063400010574
       8        5.631141602731     2.145273745660     2.111102992054
       9       -8.415482041364    -3.755304769416     6.172633455848
      10        2.016625289019     4.451303697186     4.109479177223
      11       -2.995025088522     4.048643491594    -3.838663699227
      12       -4.426465599756     2.650483067688     2.822911429284
      13       -3.459514291519    -3.721502731116    -2.927523609886
      14        1.498543834994    -3.444170902687     4.555288161218


  -Overlap Gradient:
     Atom            X                  Y                   Z
    ------   -----------------  -----------------  -----------------
       1        0.001362186584    -0.000237672188    -0.046283116306
       2        0.042507094252    -0.026442787209     0.028462584642
       3        0.000127770468    -0.162493613403     0.062909760292
       4       -0.141427915376     0.080512882643     0.061559989645
       5        0.139091868640     0.082201384259     0.065244374980
       6       -0.006881828588     0.057171543768     0.000514805925
       7        0.002695759376     0.163376384372    -0.058587084198
       8       -0.147434747470    -0.070502930017    -0.057007594676
       9       -0.031698699345    -0.025929398102     0.021607542678
      10       -0.064252540327    -0.112087803168    -0.115175747522
      11        0.077087118844    -0.094559773175     0.123481121290
      12        0.123212803980    -0.096224521226    -0.076375874106
      13        0.079617983212     0.106447519778     0.112651428972
      14       -0.074006854248     0.098768783668    -0.123002191617


  -Coulomb Gradient:
     Atom            X                  Y                   Z
    ------   -----------------  -----------------  -----------------
       1       -1.512689670659     0.512573668243     4.899392484352
       2       -3.278574086949     0.992841073342    -0.600107918608
       3       -0.172450535862    -3.455458699808     1.864529896459
       4       -3.039479396777     1.703377453547     1.676952115829
       5        2.844075450889     1.864222876716     1.960918132408
       6        0.858944432607    -3.079885676918    -1.367973560753
       7       -0.360080995862     3.986373886655    -1.414341318649
       8       -3.687440475977    -1.509201750974    -1.410671624438
       9        3.935824485422     1.577490772002    -2.928459231338
      10       -1.414532910441    -2.891501422388    -2.739198939288
      11        1.962987953539    -2.603789619143     2.718117149021
      12        2.868034838345    -1.851260031011    -1.816402039062
      13        2.183411021180     2.472250794110     2.128374982625
      14       -1.188030109454     2.281966675628    -2.971130128559


  -Exchange Gradient:
     Atom            X                  Y                   Z
    ------   -----------------  -----------------  -----------------
       1       -0.002264766050     0.000611000576     0.081254652741
       2       -0.076870762708     0.047450989845    -0.051605044630
       3       -0.000076279171     0.305486080773    -0.118659362123
       4        0.266090346852    -0.151565994243    -0.115516308270
       5       -0.261158025783    -0.154747260530    -0.122701457641
       6        0.012091106108    -0.103327165642    -0.001086560429
       7       -0.004909113429    -0.306639696530     0.110123885436
       8        0.277109073565     0.133132451787     0.107679799723
       9        0.055767668973     0.045538714610    -0.037735437985
      10        0.121569103503     0.210747093745     0.216599196520
      11       -0.144599813443     0.177681010899    -0.231731844273
      12       -0.231673087134     0.181252898643     0.143510759980
      13       -0.149916295878    -0.199826221555    -0.211661193367
      14        0.138840844595    -0.185793902378     0.231528914318


  -Total Gradient:
     Atom            X                  Y                   Z
    ------   -----------------  -----------------  -----------------
       1       -0.000788451988     0.000735266195    -0.000302970020
       2       -0.004449120447     0.003284338258    -0.000311797260
       3       -0.000078316136     0.000055952480    -0.000130619948
       4       -0.000103443684     0.000153096501     0.000310343153
       5        0.001436509889    -0.000051233642    -0.000454310247
       6        0.002894673738    -0.004625439803    -0.000952990778
       7       -0.001904288272    -0.000325405561     0.001090310801
       8       -0.000637131779     0.001864612201     0.001758250283
       9        0.000455070792    -0.001022475333     0.000032191887
      10        0.002633650640    -0.000142708914    -0.000134352682
      11        0.000824892023    -0.000605502147    -0.001968140813
      12        0.000337004922     0.000048343860    -0.000120240448
      13       -0.000586141699     0.000784756770     0.001145852600
      14       -0.000034908001    -0.000153600864     0.000038473472


*** tstop() called on Barrys-MacBook-Pro.local at Fri May 10 14:05:28 2024
Module time:
	user time   =       0.63 seconds =       0.01 minutes
	system time =       0.01 seconds =       0.00 minutes
	total time  =          0 seconds =       0.00 minutes
Total time:
	user time   =    3572.40 seconds =      59.54 minutes
	system time =      59.04 seconds =       0.98 minutes
	total time  =      85444 seconds =    1424.07 minutes

    			-----------------------------------------

    			 OPTKING 3.0: for geometry optimizations 

    			     By R.A. King, Bethel University     

    			        with contributions from          

    			    A.V. Copan, J. Cayton, A. Heide      

    			-----------------------------------------

    
	                            ===> Fragment 1 <== 

	 Z (Atomic Numbers)          Masses                          Geom                  
	       6.000000            12.000000          1.62392644 -0.29746597 -3.09220843   
	       6.000000            12.000000          1.62392644 -0.29746597 -0.17897230   
	       1.000000             1.007825          1.62392644  1.62193432 -3.81872922   
	       1.000000             1.007825          3.29662852 -1.25109508 -3.80221070   
	       1.000000             1.007825         -0.02264742 -1.26638781 -3.83687912   
	       6.000000            12.000000         -0.60814724  1.17362598  1.00519164   
	       1.000000             1.007825          1.59385478 -2.23871463  0.50135598   
	       1.000000             1.007825          3.38008915  0.54598625  0.48173572   
	       6.000000            12.000000         -2.57821335 -0.52565380  2.31600599   
	       1.000000             1.007825          0.14741888  2.49666503  2.38748732   
	       1.000000             1.007825         -1.53512054  2.28937616 -0.45358166   
	       1.000000             1.007825         -4.02424421  0.62349267  3.21037797   
	       1.000000             1.007825         -3.49900770 -1.77122406  0.97241298   
	       1.000000             1.007825         -1.69307605 -1.68157400  3.76248807   

	 - Coordinate -           - BOHR/RAD -       - ANG/DEG -
	 R(1,2)           =         2.913236           1.541618
	 R(1,3)           =         2.052299           1.086030
	 R(1,4)           =         2.052180           1.085967
	 R(1,5)           =         2.050500           1.085078
	 R(2,6)           =         2.923783           1.547199
	 R(2,7)           =         2.057230           1.088639
	 R(2,8)           =         2.057196           1.088621
	 R(6,9)           =         2.913236           1.541618
	 R(6,10)          =         2.057196           1.088621
	 R(6,11)          =         2.057231           1.088640
	 R(9,12)          =         2.052180           1.085967
	 R(9,13)          =         2.050500           1.085078
	 R(9,14)          =         2.052299           1.086030
	 B(1,2,6)         =         1.987787         113.891807
	 B(1,2,7)         =         1.907843         109.311332
	 B(1,2,8)         =         1.897760         108.733651
	 B(2,1,3)         =         1.932645         110.732380
	 B(2,1,4)         =         1.924074         110.241301
	 B(2,1,5)         =         1.942459         111.294725
	 B(2,6,9)         =         1.987788         113.891847
	 B(2,6,10)        =         1.891610         108.381264
	 B(2,6,11)        =         1.906766         109.249617
	 B(3,1,4)         =         1.888223         108.187222
	 B(3,1,5)         =         1.889535         108.262362
	 B(4,1,5)         =         1.885249         108.016830
	 B(6,2,7)         =         1.906765         109.249576
	 B(6,2,8)         =         1.891611         108.381310
	 B(6,9,12)        =         1.924075         110.241364
	 B(6,9,13)        =         1.942459         111.294676
	 B(6,9,14)        =         1.932644         110.732333
	 B(7,2,8)         =         1.868320         107.046852
	 B(9,6,10)        =         1.897760         108.733622
	 B(9,6,11)        =         1.907842         109.311300
	 B(10,6,11)       =         1.868320         107.046876
	 B(12,9,13)       =         1.885249         108.016829
	 B(12,9,14)       =         1.888223         108.187219
	 B(13,9,14)       =         1.889535         108.262400
	[D(1,2,6,9)[119.90,120.10]=         1.919862         110.000000
	 D(1,2,6,10)      =        -2.248776        -128.845392
	 D(1,2,6,11)      =        -0.218761         -12.534077
	 D(2,6,9,12)      =         3.077024         176.300508
	 D(2,6,9,13)      =        -1.114603         -63.862073
	 D(2,6,9,14)      =         0.988074          56.612476
	 D(3,1,2,6)       =         0.988072          56.612337
	 D(3,1,2,7)       =         3.126103         179.112509
	 D(3,1,2,8)       =        -1.123048         -64.345894
	 D(4,1,2,6)       =         3.077022         176.300361
	 D(4,1,2,7)       =        -1.068132         -61.199467
	 D(4,1,2,8)       =         0.965902          55.342131
	 D(5,1,2,6)       =        -1.114606         -63.862229
	 D(5,1,2,7)       =         1.023425          58.637943
	 D(5,1,2,8)       =         3.057460         175.179541
	 D(7,2,6,9)       =        -0.218761         -12.534059
	 D(7,2,6,10)      =         1.895786         108.620549
	 D(7,2,6,11)      =        -2.357384        -135.068136
	 D(8,2,6,9)       =        -2.248776        -128.845348
	 D(8,2,6,10)      =        -0.134229          -7.690740
	 D(8,2,6,11)      =         1.895787         108.620575
	 D(10,6,9,12)     =         0.965906          55.342330
	 D(10,6,9,13)     =         3.057463         175.179749
	 D(10,6,9,14)     =        -1.123044         -64.345701
	 D(11,6,9,12)     =        -1.068129         -61.199263
	 D(11,6,9,13)     =         1.023429          58.638156
	 D(11,6,9,14)     =         3.126106         179.112706


	        --- Internal Coordinate Step in ANG or DEG, aJ/ANG or AJ/DEG ---
	-------------------------------------------------------------------------------
	           Coordinate      Previous         Force          Change          New 
	           ----------      --------        ------          ------        ------
	               R(1,2)       1.54162       -0.00476       -0.00107       1.54054
	               R(1,3)       1.08603       -0.00081       -0.00015       1.08588
	               R(1,4)       1.08597        0.00217        0.00039       1.08636
	               R(1,5)       1.08508        0.00794        0.00144       1.08652
	               R(2,6)       1.54720        0.07127        0.01636       1.56356
	               R(2,7)       1.08864       -0.00573       -0.00105       1.08759
	               R(2,8)       1.08862       -0.00647       -0.00118       1.08744
	               R(6,9)       1.54162       -0.00476       -0.00107       1.54054
	              R(6,10)       1.08862       -0.00647       -0.00118       1.08744
	              R(6,11)       1.08864       -0.00573       -0.00105       1.08759
	              R(9,12)       1.08597        0.00217        0.00039       1.08636
	              R(9,13)       1.08508        0.00794        0.00144       1.08652
	              R(9,14)       1.08603       -0.00081       -0.00015       1.08588
	             B(1,2,6)     113.89181       -0.00023       -0.74117     113.15063
	             B(1,2,7)     109.31133        0.00001        1.84936     111.16069
	             B(1,2,8)     108.73365       -0.00004       -2.86936     105.86429
	             B(2,1,3)     110.73238       -0.00001       -0.08300     110.64938
	             B(2,1,4)     110.24130        0.00005        0.36267     110.60397
	             B(2,1,5)     111.29472       -0.00010       -0.53518     110.75954
	             B(2,6,9)     113.89185       -0.00023       -0.74124     113.15061
	            B(2,6,10)     108.38126        0.00021        1.45072     109.83198
	            B(2,6,11)     109.24962        0.00014        0.75574     110.00536
	             B(3,1,4)     108.18722       -0.00001        0.08367     108.27089
	             B(3,1,5)     108.26236        0.00003       -0.09600     108.16637
	             B(4,1,5)     108.01683        0.00004        0.28179     108.29862
	             B(6,2,7)     109.24958        0.00014        0.75580     110.00537
	             B(6,2,8)     108.38131        0.00021        1.45064     109.83195
	            B(6,9,12)     110.24136        0.00005        0.36257     110.60393
	            B(6,9,13)     111.29468       -0.00010       -0.53512     110.75956
	            B(6,9,14)     110.73233       -0.00001       -0.08294     110.64940
	             B(7,2,8)     107.04685       -0.00008       -0.51035     106.53651
	            B(9,6,10)     108.73362       -0.00004       -2.86931     105.86431
	            B(9,6,11)     109.31130        0.00001        1.84940     111.16070
	           B(10,6,11)     107.04688       -0.00008       -0.51038     106.53650
	           B(12,9,13)     108.01683        0.00004        0.28179     108.29862
	           B(12,9,14)     108.18722       -0.00001        0.08368     108.27090
	           B(13,9,14)     108.26240        0.00003       -0.09604     108.16636
	[D(1,2,6,9)[119.90,120.10]     110.00000        0.00000        5.62913     115.62913
	          D(1,2,6,10)    -128.84539       -0.00005        2.52521    -126.32018
	          D(1,2,6,11)     -12.53408        0.00004        3.16985      -9.36422
	          D(2,6,9,12)     176.30051        0.00004        2.65582     178.95633
	          D(2,6,9,13)     -63.86207        0.00005        2.89927     -60.96280
	          D(2,6,9,14)      56.61248        0.00001        2.36961      58.98208
	           D(3,1,2,6)      56.61234        0.00001        2.36968      58.98202
	           D(3,1,2,7)     179.11251        0.00004        4.23582     183.34833
	           D(3,1,2,8)     -64.34589       -0.00007        2.99018     -61.35571
	           D(4,1,2,6)     176.30036        0.00004        2.65591     178.95627
	           D(4,1,2,7)     -61.19947        0.00006        4.52204     -56.67742
	           D(4,1,2,8)      55.34213       -0.00005        3.27641      58.61854
	           D(5,1,2,6)     -63.86223        0.00005        2.89938     -60.96285
	           D(5,1,2,7)      58.63794        0.00008        4.76551      63.40346
	           D(5,1,2,8)     175.17954       -0.00003        3.51988     178.69942
	           D(7,2,6,9)     -12.53406        0.00004        3.16982      -9.36424
	          D(7,2,6,10)     108.62055       -0.00001        0.06590     108.68645
	          D(7,2,6,11)    -135.06814        0.00009        0.71054    -134.35759
	           D(8,2,6,9)    -128.84535       -0.00005        2.52515    -126.32020
	          D(8,2,6,10)      -7.69074       -0.00010       -0.57877      -8.26952
	          D(8,2,6,11)     108.62057       -0.00001        0.06587     108.68644
	         D(10,6,9,12)      55.34233       -0.00005        3.27623      58.61856
	         D(10,6,9,13)     175.17975       -0.00003        3.51968     178.69943
	         D(10,6,9,14)     -64.34570       -0.00007        2.99002     -61.35568
	         D(11,6,9,12)     -61.19926        0.00006        4.52186     -56.67740
	         D(11,6,9,13)      58.63816        0.00008        4.76531      63.40347
	         D(11,6,9,14)     179.11271        0.00004        4.23565     183.34835
	-------------------------------------------------------------------------------

	                                 ==> Convergence Check <==                                  
    
	Measures of convergence in internal coordinates in au.
    
	Criteria marked as inactive (o), active & met (*), and active & unmet ( ).

	----------------------------------------------------------------------------------------------
	   Step    Total Energy     Delta E     Max Force     RMS Force      Max Disp      RMS Disp   
	----------------------------------------------------------------------------------------------
	  Convergence Criteria     1.00e-06 *    3.00e-04 *             o    1.20e-03 *             o
	----------------------------------------------------------------------------------------------
	     1    -155.46119760   -1.55e+02      8.65e-03      1.48e-03 o    9.82e-02      3.95e-02 o  ~
	----------------------------------------------------------------------------------------------

Next Geometry in Ang 
	Fragment 1 (Ang)

	    C   0.8801077119  -0.1368158087  -1.6452439889
	    C   0.8432190231  -0.1888154542  -0.1060190260
	    H   0.9592636868   0.8891815470  -1.9919484528
	    H   1.7327897966  -0.6917909976  -2.0261825494
	    H  -0.0236055963  -0.5681077536  -2.0669147183
	    C  -0.3492682242   0.6148735027   0.5077918020
	    H   0.8231602008  -1.2156801824   0.2517497777
	    H   1.7861921709   0.2371252858   0.2284858132
	    C  -1.3590923530  -0.2763332275   1.2556446123
	    H   0.0234023730   1.3237429692   1.2434127341
	    H  -0.8403337272   1.2008672043  -0.2657183912
	    H  -2.1584507541   0.3246367129   1.6799553475
	    H  -1.8011651435  -1.0058511816   0.5826721910
	    H  -0.8711308424  -0.8131621056   2.0636350510


    Structure for next step:
    Molecular point group: c1
    Full point group: C1

    Geometry (in Angstrom), charge = 0, multiplicity = 1:

    C       
    C             1    1.540545
    H             1    1.085882      2  110.649377
    H             1    1.086360      2  110.603969      3  119.974252
    H             1    1.086516      2  110.759540      3 -119.944869
    C             2    1.563555      1  113.150635      3   58.982020
    H             2    1.087590      1  111.160688      6  124.366306
    H             2    1.087436      1  105.864293      6 -120.337735
    C             6    1.540545      2  113.150606      1    dihedral
    H             6    1.087436      2  109.831983      9  118.050688
    H             6    1.087590      2  110.005356      9 -124.993352
    H             9    1.086360      6  110.603933     10   58.618564
    H             9    1.086516      6  110.759559     12  120.080868
    H             9    1.085882      6  110.649396     12 -119.974244

    dihedral  =  115.6291293742


Scratch directory: /tmp/
gradient() will perform analytic gradient computation.
   => Libint2 <=

    Primary   basis highest AM E, G, H:  5, 4, 3
    Auxiliary basis highest AM E, G, H:  6, 5, 4
    Onebody   basis highest AM E, G, H:  6, 5, 4
    Solid Harmonics ordering:            Gaussian

*** tstart() called on Barrys-MacBook-Pro.local
*** at Fri May 10 14:05:28 2024

   => Loading Basis Set <=

    Name: STO-3G
    Role: ORBITAL
    Keyword: BASIS
    atoms 1-2, 6, 9       entry C          line    61 file /Users/blink/psi4conda/share/psi4/basis/sto-3g.gbs 
    atoms 3-5, 7-8, 10-14 entry H          line    19 file /Users/blink/psi4conda/share/psi4/basis/sto-3g.gbs 


         ---------------------------------------------------------
                                   SCF
               by Justin Turney, Rob Parrish, Andy Simmonett
                          and Daniel G. A. Smith
                              RHF Reference
                        4 Threads,    953 MiB Core
         ---------------------------------------------------------

  ==> Geometry <==

    Molecular point group: c1
    Full point group: C1

    Geometry (in Angstrom), charge = 0, multiplicity = 1:

       Center              X                  Y                   Z               Mass       
    ------------   -----------------  -----------------  -----------------  -----------------
         C            0.855018899487    -0.130731990626    -1.657764133244    12.000000000000
         C            0.855018899487    -0.130731990626    -0.117219351418    12.000000000000
         H            0.855018899487     0.885388797751    -2.040698554583     1.007825032230
         H            1.735883673472    -0.638771839084    -2.040061330743     1.007825032230
         H           -0.025329743216    -0.637872703028    -2.042876135578     1.007825032230
         C           -0.377054558058     0.610098752418     0.497492216992    12.000000000000
         H            0.914257568103    -1.143256233683     0.275384113393     1.007825032230
         H            1.773017350636     0.370697870241     0.180041976898     1.007825032230
         C           -1.305990887115    -0.321563247976     1.298966637447    12.000000000000
         H           -0.038906668175     1.368500460202     1.199632021053     1.007825032230
         H           -0.924302956693     1.133181474029    -0.283376288030     1.007825032230
         H           -2.135943471744     0.237538508509     1.721769494449     1.007825032230
         H           -1.710567785313    -1.103118126523     0.661780493181     1.007825032230
         H           -0.764520198992    -0.794624197189     2.112700661136     1.007825032230

  Running in c1 symmetry.

  Rotational constants: A =      0.58429  B =      0.12557  C =      0.12438 [cm^-1]
  Rotational constants: A =  17516.49812  B =   3764.53254  C =   3728.92115 [MHz]
  Nuclear repulsion =  130.443446973909857

  Charge       = 0
  Multiplicity = 1
  Electrons    = 34
  Nalpha       = 17
  Nbeta        = 17

  ==> Algorithm <==

  SCF Algorithm Type is DIRECT.
  DIIS enabled.
  MOM disabled.
  Fractional occupation disabled.
  Guess Type is READ.
  Energy threshold   = 1.00e-08
  Density threshold  = 1.00e-08
  Integral threshold = 1.00e-08

  ==> Primary Basis <==

  -AO BASIS SET INFORMATION:
    Name                   = STO-3G
    Blend                  = STO-3G
    Total number of shells = 22
    Number of primitives   = 66
    Number of AO           = 30
    Number of SO           = 30
    Maximum AM             = 1
    Spherical Harmonics    = TRUE

  -Contraction Scheme:
    Atom   Type   All Primitives // Shells:
   ------ ------ --------------------------
       1     C     6s 3p // 2s 1p 
       2     C     6s 3p // 2s 1p 
       3     H     3s // 1s 
       4     H     3s // 1s 
       5     H     3s // 1s 
       6     C     6s 3p // 2s 1p 
       7     H     3s // 1s 
       8     H     3s // 1s 
       9     C     6s 3p // 2s 1p 
      10     H     3s // 1s 
      11     H     3s // 1s 
      12     H     3s // 1s 
      13     H     3s // 1s 
      14     H     3s // 1s 

   => Loading Basis Set <=

    Name: (STO-3G AUX)
    Role: JKFIT
    Keyword: DF_BASIS_SCF
    atoms 1-2, 6, 9       entry C          line   198 file /Users/blink/psi4conda/share/psi4/basis/def2-universal-jkfit.gbs 
    atoms 3-5, 7-8, 10-14 entry H          line    18 file /Users/blink/psi4conda/share/psi4/basis/def2-universal-jkfit.gbs 

   => Loading Basis Set <=

    Name: STO-3G
    Role: ORBITAL
    Keyword: BASIS
    atoms 1-2, 6, 9       entry C          line    61 file /Users/blink/psi4conda/share/psi4/basis/sto-3g.gbs 
    atoms 3-5, 7-8, 10-14 entry H          line    19 file /Users/blink/psi4conda/share/psi4/basis/sto-3g.gbs 

  Reading orbitals from file /tmp/butane_eclipsed_2.default.45084.180.npy, no projection.

  Starting with a DF guess...

  ==> Integral Setup <==

  DFHelper Memory: AOs need 0.005 GiB; user supplied 0.698 GiB. 
  Using in-core AOs.

  ==> MemDFJK: Density-Fitted J/K Matrices <==

    J tasked:                   Yes
    K tasked:                   Yes
    wK tasked:                   No
    OpenMP threads:               4
    Memory [MiB]:               715
    Algorithm:                 Core
    Schwarz Cutoff:           1E-08
    Mask sparsity (%):       0.6667
    Fitting Condition:        1E-10

   => Auxiliary Basis Set <=

  -AO BASIS SET INFORMATION:
    Name                   = (STO-3G AUX)
    Blend                  = DEF2-UNIVERSAL-JKFIT
    Total number of shells = 160
    Number of primitives   = 212
    Number of AO           = 556
    Number of SO           = 480
    Maximum AM             = 4
    Spherical Harmonics    = TRUE

  -Contraction Scheme:
    Atom   Type   All Primitives // Shells:
   ------ ------ --------------------------
       1     C     14s 10p 6d 2f 1g // 10s 8p 5d 1f 1g 
       2     C     14s 10p 6d 2f 1g // 10s 8p 5d 1f 1g 
       3     H     4s 2p 2d // 2s 2p 2d 
       4     H     4s 2p 2d // 2s 2p 2d 
       5     H     4s 2p 2d // 2s 2p 2d 
       6     C     14s 10p 6d 2f 1g // 10s 8p 5d 1f 1g 
       7     H     4s 2p 2d // 2s 2p 2d 
       8     H     4s 2p 2d // 2s 2p 2d 
       9     C     14s 10p 6d 2f 1g // 10s 8p 5d 1f 1g 
      10     H     4s 2p 2d // 2s 2p 2d 
      11     H     4s 2p 2d // 2s 2p 2d 
      12     H     4s 2p 2d // 2s 2p 2d 
      13     H     4s 2p 2d // 2s 2p 2d 
      14     H     4s 2p 2d // 2s 2p 2d 

  Minimum eigenvalue in the overlap matrix is 2.0146497930E-01.
  Reciprocal condition number of the overlap matrix is 7.8007373930E-02.
    Using symmetric orthogonalization.

  ==> Pre-Iterations <==

  SCF Guess: Orbitals guess was supplied from a previous computation.

   -------------------------------------------------------
    Irrep   Nso     Nmo     Nalpha   Nbeta   Ndocc  Nsocc
   -------------------------------------------------------
     A         30      30      17      17      17       0
   -------------------------------------------------------
    Total      30      30      17      17      17       0
   -------------------------------------------------------

  ==> Iterations <==

                           Total Energy        Delta E     RMS |[F,P]|

   @DF-RHF iter   0:  -155.43585341031638   -1.55436e+02   4.06529e-03 
   @DF-RHF iter   1:  -155.45999681055471   -2.41434e-02   9.25487e-04 ADIIS/DIIS
   @DF-RHF iter   2:  -155.46078782023687   -7.91010e-04   2.82068e-04 ADIIS/DIIS
   @DF-RHF iter   3:  -155.46086994344256   -8.21232e-05   3.23843e-05 DIIS
   @DF-RHF iter   4:  -155.46087073822736   -7.94785e-07   2.28141e-06 DIIS
   @DF-RHF iter   5:  -155.46087074345283   -5.22547e-09   4.42353e-07 DIIS
   @DF-RHF iter   6:  -155.46087074362967   -1.76840e-10   6.86817e-08 DIIS
   @DF-RHF iter   7:  -155.46087074363419   -4.51905e-12   9.66354e-09 DIIS

  DF guess converged.

  ==> DirectJK: Integral-Direct J/K Matrices <==

    J tasked:                  Yes
    K tasked:                  Yes
    wK tasked:                  No
    Integrals threads:           4
    Screening Type:           CSAM
    Screening Cutoff:        1E-08
    Incremental Fock:           No

   @RHF iter   8:  -155.46035636383499   -1.55460e+02   4.36084e-06 DIIS
   @RHF iter   9:  -155.46035637215965   -8.32466e-09   7.31125e-07 DIIS
   @RHF iter  10:  -155.46035637242809   -2.68443e-10   1.19970e-07 DIIS
   @RHF iter  11:  -155.46035637243955   -1.14539e-11   2.05568e-08 DIIS
   @RHF iter  12:  -155.46035637244009   -5.40012e-13   1.03418e-09 DIIS
  Energy and wave function converged.


  ==> Post-Iterations <==

    Orbital Energies [Eh]
    ---------------------

    Doubly Occupied:                                                      

       1A    -11.037551     2A    -11.037187     3A    -11.031698  
       4A    -11.031694     5A     -1.024182     6A     -0.942767  
       7A     -0.829035     8A     -0.756590     9A     -0.596486  
      10A     -0.575042    11A     -0.551298    12A     -0.520889  
      13A     -0.480433    14A     -0.477122    15A     -0.436706  
      16A     -0.418616    17A     -0.415466  

    Virtual:                                                              

      18A      0.601615    19A      0.606661    20A      0.639945  
      21A      0.682800    22A      0.685905    23A      0.711372  
      24A      0.741881    25A      0.749782    26A      0.774265  
      27A      0.793384    28A      0.794040    29A      0.827434  
      30A      0.840408  

    Final Occupation by Irrep:
              A 
    DOCC [    17 ]
    NA   [    17 ]
    NB   [    17 ]

  @RHF Final Energy:  -155.46035637244009

   => Energetics <=

    Nuclear Repulsion Energy =            130.4434469739098574
    One-Electron Energy =                -467.4820807041647868
    Two-Electron Energy =                 181.5782773578148124
    Total Energy =                       -155.4603563724400885

Computation Completed


Properties will be evaluated at   0.000000,   0.000000,   0.000000 [a0]

Properties computed using the SCF density matrix


 Multipole Moments:

 ------------------------------------------------------------------------------------
     Multipole            Electronic (a.u.)      Nuclear  (a.u.)        Total (a.u.)
 ------------------------------------------------------------------------------------

 L = 1.  Multiply by 2.5417464519 to convert [e a0] to [Debye]
 Dipole X            :          0.3121457           -0.3012964            0.0108492
 Dipole Y            :          0.3130613           -0.3021802            0.0108812
 Dipole Z            :          0.2483461           -0.2397143            0.0086318
 Magnitude           :                                                    0.0176242

 ------------------------------------------------------------------------------------

*** tstop() called on Barrys-MacBook-Pro.local at Fri May 10 14:05:29 2024
Module time:
	user time   =       2.87 seconds =       0.05 minutes
	system time =       0.04 seconds =       0.00 minutes
	total time  =          1 seconds =       0.02 minutes
Total time:
	user time   =    3576.60 seconds =      59.61 minutes
	system time =      59.09 seconds =       0.98 minutes
	total time  =      85445 seconds =    1424.08 minutes

*** tstart() called on Barrys-MacBook-Pro.local
*** at Fri May 10 14:05:29 2024


         ------------------------------------------------------------
                                   SCF GRAD                          
                          Rob Parrish, Justin Turney,                
                       Andy Simmonett, and Alex Sokolov              
         ------------------------------------------------------------

  ==> Geometry <==

    Molecular point group: c1
    Full point group: C1

    Geometry (in Angstrom), charge = 0, multiplicity = 1:

       Center              X                  Y                   Z               Mass       
    ------------   -----------------  -----------------  -----------------  -----------------
         C            0.855018899487    -0.130731990626    -1.657764133244    12.000000000000
         C            0.855018899487    -0.130731990626    -0.117219351418    12.000000000000
         H            0.855018899487     0.885388797751    -2.040698554583     1.007825032230
         H            1.735883673472    -0.638771839084    -2.040061330743     1.007825032230
         H           -0.025329743216    -0.637872703028    -2.042876135578     1.007825032230
         C           -0.377054558058     0.610098752418     0.497492216992    12.000000000000
         H            0.914257568103    -1.143256233683     0.275384113393     1.007825032230
         H            1.773017350636     0.370697870241     0.180041976898     1.007825032230
         C           -1.305990887115    -0.321563247976     1.298966637447    12.000000000000
         H           -0.038906668175     1.368500460202     1.199632021053     1.007825032230
         H           -0.924302956693     1.133181474029    -0.283376288030     1.007825032230
         H           -2.135943471744     0.237538508509     1.721769494449     1.007825032230
         H           -1.710567785313    -1.103118126523     0.661780493181     1.007825032230
         H           -0.764520198992    -0.794624197189     2.112700661136     1.007825032230

  Nuclear repulsion =  130.443446973909829

  ==> Basis Set <==

  -AO BASIS SET INFORMATION:
    Name                   = STO-3G
    Blend                  = STO-3G
    Total number of shells = 22
    Number of primitives   = 66
    Number of AO           = 30
    Number of SO           = 30
    Maximum AM             = 1
    Spherical Harmonics    = TRUE

  -Contraction Scheme:
    Atom   Type   All Primitives // Shells:
   ------ ------ --------------------------
       1     C     6s 3p // 2s 1p 
       2     C     6s 3p // 2s 1p 
       3     H     3s // 1s 
       4     H     3s // 1s 
       5     H     3s // 1s 
       6     C     6s 3p // 2s 1p 
       7     H     3s // 1s 
       8     H     3s // 1s 
       9     C     6s 3p // 2s 1p 
      10     H     3s // 1s 
      11     H     3s // 1s 
      12     H     3s // 1s 
      13     H     3s // 1s 
      14     H     3s // 1s 

  ==> DirectJKGrad: Integral-Direct SCF Gradients <==

    Gradient:                    1
    J tasked:                  Yes
    K tasked:                  Yes
    wK tasked:                  No
    Integrals threads:           4
    Schwarz Cutoff:          1E-08


  -Nuclear Gradient:
     Atom            X                  Y                   Z
    ------   -----------------  -----------------  -----------------
       1       -1.381350710784     0.466111298210     5.728213158704
       2       -4.073091401960     1.514438678181    -1.369555045481
       3       -0.182436229034    -1.738977443871     1.229979886734
       4       -1.629370707731     0.908345876783     1.103843882096
       5        1.356738659212     0.963677213676     1.277857099177
       6        1.311422298170    -4.284210415480    -0.827653459013
       7       -0.585336011892     2.033759781401    -0.744607887259
       8       -2.052234697886    -0.820895646833    -0.676200193283
       9        4.142794343159     2.303435289257    -3.531183995682
      10       -0.534880446457    -1.773809154495    -1.382131299716
      11        1.238625777248    -1.378553536577     1.264371287852
      12        1.750535201339    -0.786826833888    -1.007443933936
      13        1.174585450838     1.575073878245     0.736086780718
      14       -0.536001524223     1.018431015392    -1.801576280912


  -Core Hamiltonian Gradient:
     Atom            X                  Y                   Z
    ------   -----------------  -----------------  -----------------
       1        3.024344522482    -0.851811753583   -10.653606569954
       2        7.185350101847    -2.700972905524     2.112423237914
       3        0.350499468914     5.054341472569    -3.038572006983
       4        4.530875577375    -2.548314155567    -2.752250137803
       5       -4.121615305607    -2.722703278591    -3.116894482881
       6       -2.518866891561     7.381151981276     1.600276594822
       7        1.283285898707    -5.793523439972     2.261464562014
       8        5.612943552140     2.433493223627     1.719403450395
       9       -7.803713153402    -3.941587467113     6.851094569555
      10        1.527650485685     4.728050912050     3.961716507193
      11       -3.350830495713     3.719911995921    -3.906423323366
      12       -4.693543413047     2.385171603485     2.622826982144
      13       -2.951212111163    -4.370876218916    -2.510308871845
      14        1.924831763343    -2.772331969662     4.848849488795


  -Overlap Gradient:
     Atom            X                  Y                   Z
    ------   -----------------  -----------------  -----------------
       1       -0.003153794413    -0.001590093379    -0.045825590496
       2        0.051297077643    -0.015504947697     0.022388289202
       3        0.000166706464    -0.162730267850     0.062740523889
       4       -0.141095991745     0.081149873774     0.062860227223
       5        0.140695965444     0.080666310126     0.062602471737
       6       -0.010704718336     0.056216266026     0.009907206203
       7       -0.011604690318     0.162065523063    -0.065432168338
       8       -0.146876066835    -0.077676452041    -0.044034924706
       9       -0.028077715964    -0.029732814224     0.020977647125
      10       -0.050037770588    -0.119815135020    -0.112631483746
      11        0.086544211491    -0.086906110927     0.125054770633
      12        0.133747454269    -0.088520020075    -0.068706646413
      13        0.065002711929     0.125635900521     0.101053199058
      14       -0.085903379041     0.076741967704    -0.130953521371


  -Coulomb Gradient:
     Atom            X                  Y                   Z
    ------   -----------------  -----------------  -----------------
       1       -1.643474819109     0.387880699173     4.891895097382
       2       -3.069362141449     1.169377876762    -0.727178744512
       3       -0.168125941677    -3.458382268021     1.864021066304
       4       -3.025205503600     1.711405499505     1.703381071210
       5        2.888639592499     1.830390754057     1.894679643379
       6        1.193478977271    -3.050769397539    -0.765294913485
       7       -0.707451917777     3.900936639022    -1.571599603747
       8       -3.690184298891    -1.682078848152    -1.086550593115
       9        3.642493241187     1.617010009795    -3.301454450476
      10       -1.040376536424    -3.062361912460    -2.677125806735
      11        2.188804530882    -2.415236832530     2.750178583141
      12        3.060406658674    -1.676102758346    -1.675371912474
      13        1.834461503286     2.906568258221     1.863060646964
      14       -1.464103344871     1.821362280513    -3.162640083835


  -Exchange Gradient:
     Atom            X                  Y                   Z
    ------   -----------------  -----------------  -----------------
       1        0.009142018242     0.006154803815     0.080456649837
       2       -0.096851885037     0.021948075689    -0.038311131552
       3       -0.000231930163     0.305629647787    -0.118952322236
       4        0.265006554516    -0.152592856033    -0.117981975192
       5       -0.264915112345    -0.152233812298    -0.117042827127
       6        0.017029764558    -0.102004047874    -0.025195709808
       7        0.022543552565    -0.302095089749     0.123481670793
       8        0.277191871335     0.146562122196     0.081655821266
       9        0.050980126311     0.054143154755    -0.032623241792
      10        0.093535055494     0.225252555162     0.213297831935
      11       -0.160628841080     0.163604603206    -0.233343683538
      12       -0.251289650626     0.166350140505     0.128895001449
      13       -0.122156548158    -0.235973546485    -0.190914754923
      14        0.160645024387    -0.144745750677     0.246578670888


  -Total Gradient:
     Atom            X                  Y                   Z
    ------   -----------------  -----------------  -----------------
       1        0.005507216417     0.006744954236     0.001132745474
       2       -0.002658248956    -0.010713222589    -0.000233394430
       3       -0.000127925496    -0.000118859386    -0.000782852292
       4        0.000209928816    -0.000005761537    -0.000146932466
       5       -0.000456200796    -0.000202813030     0.001201904284
       6       -0.007640569897     0.000384386408    -0.007960281281
       7        0.001436831285     0.001143413765     0.003306573464
       8        0.000840359863    -0.000595601204    -0.005726439442
       9        0.004476841291     0.003268172470     0.006810528729
      10       -0.004109212290    -0.002682734763     0.003125748931
      11        0.002515182828     0.002820119094    -0.000162365278
      12       -0.000143749392     0.000072131681     0.000199490770
      13        0.000681006732     0.000428271586    -0.001023000028
      14       -0.000531460406    -0.000542456731     0.000258273566


*** tstop() called on Barrys-MacBook-Pro.local at Fri May 10 14:05:29 2024
Module time:
	user time   =       0.46 seconds =       0.01 minutes
	system time =       0.00 seconds =       0.00 minutes
	total time  =          0 seconds =       0.00 minutes
Total time:
	user time   =    3577.07 seconds =      59.62 minutes
	system time =      59.09 seconds =       0.98 minutes
	total time  =      85445 seconds =    1424.08 minutes

    			-----------------------------------------

    			 OPTKING 3.0: for geometry optimizations 

    			     By R.A. King, Bethel University     

    			        with contributions from          

    			    A.V. Copan, J. Cayton, A. Heide      

    			-----------------------------------------

    
	                            ===> Fragment 1 <== 

	 Z (Atomic Numbers)          Masses                          Geom                  
	       6.000000            12.000000          1.61575155 -0.24704766 -3.13272019   
	       6.000000            12.000000          1.61575155 -0.24704766 -0.22151247   
	       1.000000             1.007825          1.61575155  1.67314234 -3.85636137   
	       1.000000             1.007825          3.28034473 -1.20710383 -3.85515719   
	       1.000000             1.007825         -0.04786628 -1.20540471 -3.86047640   
	       6.000000            12.000000         -0.71252985  1.15291955  0.94012404   
	       1.000000             1.007825          1.72769641 -2.16044117  0.52040055   
	       1.000000             1.007825          3.35051721  0.70051745  0.34023003   
	       6.000000            12.000000         -2.46796510 -0.60766647  2.45469119   
	       1.000000             1.007825         -0.07352295  2.58609107  2.26697597   
	       1.000000             1.007825         -1.74667945  2.14140264 -0.53550357   
	       1.000000             1.007825         -4.03634818  0.44888273  3.25367280   
	       1.000000             1.007825         -3.23250463 -2.08459114  1.25058389   
	       1.000000             1.007825         -1.44473379 -1.50162211  3.99242563   

	 - Coordinate -           - BOHR/RAD -       - ANG/DEG -
	 R(1,2)           =         2.911208           1.540545
	 R(1,3)           =         2.052020           1.085882
	 R(1,4)           =         2.052923           1.086360
	 R(1,5)           =         2.053217           1.086516
	 R(2,6)           =         2.954691           1.563555
	 R(2,7)           =         2.055247           1.087590
	 R(2,8)           =         2.054956           1.087436
	 R(6,9)           =         2.911208           1.540545
	 R(6,10)          =         2.054957           1.087436
	 R(6,11)          =         2.055247           1.087590
	 R(9,12)          =         2.052923           1.086360
	 R(9,13)          =         2.053217           1.086516
	 R(9,14)          =         2.052020           1.085882
	 B(1,2,6)         =         1.974851         113.150635
	 B(1,2,7)         =         1.940120         111.160688
	 B(1,2,8)         =         1.847680         105.864293
	 B(2,1,3)         =         1.931196         110.649377
	 B(2,1,4)         =         1.930403         110.603969
	 B(2,1,5)         =         1.933119         110.759540
	 B(2,6,9)         =         1.974851         113.150606
	 B(2,6,10)        =         1.916930         109.831983
	 B(2,6,11)        =         1.919956         110.005356
	 B(3,1,4)         =         1.889684         108.270895
	 B(3,1,5)         =         1.887859         108.166367
	 B(4,1,5)         =         1.890167         108.298618
	 B(6,2,7)         =         1.919956         110.005373
	 B(6,2,8)         =         1.916929         109.831954
	 B(6,9,12)        =         1.930403         110.603933
	 B(6,9,13)        =         1.933119         110.759559
	 B(6,9,14)        =         1.931196         110.649396
	 B(7,2,8)         =         1.859413         106.536506
	 B(9,6,10)        =         1.847681         105.864308
	 B(9,6,11)        =         1.940120         111.160701
	 B(10,6,11)       =         1.859413         106.536500
	 B(12,9,13)       =         1.890167         108.298618
	 B(12,9,14)       =         1.889684         108.270897
	 B(13,9,14)       =         1.887859         108.166362
	[D(1,2,6,9)[119.90,120.10]=         2.018109         115.629129
	 D(1,2,6,10)      =        -2.204703        -126.320183
	 D(1,2,6,11)      =        -0.163437          -9.364223
	 D(2,6,9,12)      =         3.123377         178.956328
	 D(2,6,9,13)      =        -1.064002         -60.962804
	 D(2,6,9,14)      =         1.029432          58.982084
	 D(3,1,2,6)       =         1.029430          58.982020
	 D(3,1,2,7)       =         3.200032         183.348326
	 D(3,1,2,8)       =        -1.070859         -61.355714
	 D(4,1,2,6)       =         3.123376         178.956272
	 D(4,1,2,7)       =        -0.989208         -56.677422
	 D(4,1,2,8)       =         1.023086          58.618537
	 D(5,1,2,6)       =        -1.064002         -60.962849
	 D(5,1,2,7)       =         1.106599          63.403456
	 D(5,1,2,8)       =         3.118893         178.699416
	 D(7,2,6,9)       =        -0.163437          -9.364242
	 D(7,2,6,10)      =         1.896936         108.686446
	 D(7,2,6,11)      =        -2.344982        -134.357594
	 D(8,2,6,9)       =        -2.204703        -126.320203
	 D(8,2,6,10)      =        -0.144330          -8.269515
	 D(8,2,6,11)      =         1.896936         108.686445
	 D(10,6,9,12)     =         1.023087          58.618564
	 D(10,6,9,13)     =         3.118893         178.699433
	 D(10,6,9,14)     =        -1.070859         -61.355679
	 D(11,6,9,12)     =        -0.989207         -56.677402
	 D(11,6,9,13)     =         1.106599          63.403466
	 D(11,6,9,14)     =         3.200032         183.348354


	        --- Internal Coordinate Step in ANG or DEG, aJ/ANG or AJ/DEG ---
	-------------------------------------------------------------------------------
	           Coordinate      Previous         Force          Change          New 
	           ----------      --------        ------          ------        ------
	               R(1,2)       1.54054        0.01157        0.00141       1.54196
	               R(1,3)       1.08588       -0.00136       -0.00018       1.08570
	               R(1,4)       1.08636       -0.00185       -0.00013       1.08623
	               R(1,5)       1.08652       -0.00032        0.00024       1.08676
	               R(2,6)       1.56356       -0.04952       -0.00393       1.55963
	               R(2,7)       1.08759       -0.00171       -0.00040       1.08719
	               R(2,8)       1.08744        0.00931        0.00084       1.08827
	               R(6,9)       1.54054        0.01157        0.00141       1.54196
	              R(6,10)       1.08744        0.00931        0.00084       1.08827
	              R(6,11)       1.08759       -0.00171       -0.00040       1.08719
	              R(9,12)       1.08636       -0.00185       -0.00013       1.08623
	              R(9,13)       1.08652       -0.00032        0.00024       1.08676
	              R(9,14)       1.08588       -0.00136       -0.00018       1.08570
	             B(1,2,6)     113.15063       -0.00004       -0.26648     112.88415
	             B(1,2,7)     111.16069       -0.00010       -0.03317     111.12752
	             B(1,2,8)     105.86429        0.00024        0.50415     106.36845
	             B(2,1,3)     110.64938       -0.00011       -0.36222     110.28716
	             B(2,1,4)     110.60397       -0.00002       -0.01395     110.59002
	             B(2,1,5)     110.75954        0.00017        0.42417     111.18371
	             B(2,6,9)     113.15061       -0.00004       -0.26647     112.88414
	            B(2,6,10)     109.83198       -0.00023       -0.37301     109.45898
	            B(2,6,11)     110.00536        0.00012        0.10519     110.11054
	             B(3,1,4)     108.27089        0.00004        0.00585     108.27674
	             B(3,1,5)     108.16637       -0.00002       -0.02388     108.14248
	             B(4,1,5)     108.29862       -0.00005       -0.03329     108.26532
	             B(6,2,7)     110.00537        0.00012        0.10518     110.11055
	             B(6,2,8)     109.83195       -0.00023       -0.37299     109.45896
	            B(6,9,12)     110.60393       -0.00002       -0.01394     110.59000
	            B(6,9,13)     110.75956        0.00017        0.42417     111.18372
	            B(6,9,14)     110.64940       -0.00011       -0.36223     110.28717
	             B(7,2,8)     106.53651        0.00001        0.08600     106.62251
	            B(9,6,10)     105.86431        0.00024        0.50415     106.36846
	            B(9,6,11)     111.16070       -0.00010       -0.03317     111.12753
	           B(10,6,11)     106.53650        0.00001        0.08600     106.62250
	           B(12,9,13)     108.29862       -0.00005       -0.03329     108.26532
	           B(12,9,14)     108.27090        0.00004        0.00585     108.27674
	           B(13,9,14)     108.16636       -0.00002       -0.02389     108.14247
	[D(1,2,6,9)[119.90,120.10]     115.62913        0.00000        2.42645     118.05558
	          D(1,2,6,10)    -126.32018        0.00013        2.64071    -123.67947
	          D(1,2,6,11)      -9.36422        0.00007        2.58645      -6.77777
	          D(2,6,9,12)     178.95633       -0.00008        0.05509     179.01142
	          D(2,6,9,13)     -60.96280       -0.00006        0.28305     -60.67975
	          D(2,6,9,14)      58.98208       -0.00004        0.29137      59.27345
	           D(3,1,2,6)      58.98202       -0.00004        0.29139      59.27341
	           D(3,1,2,7)     183.34833        0.00000        0.20285     183.55118
	           D(3,1,2,8)     -61.35571        0.00010        0.57344     -60.78227
	           D(4,1,2,6)     178.95627       -0.00008        0.05511     179.01138
	           D(4,1,2,7)     -56.67742       -0.00004       -0.03343     -56.71085
	           D(4,1,2,8)      58.61854        0.00006        0.33716      58.95570
	           D(5,1,2,6)     -60.96285       -0.00006        0.28307     -60.67978
	           D(5,1,2,7)      63.40346       -0.00001        0.19453      63.59799
	           D(5,1,2,8)     178.69942        0.00009        0.56512     179.26453
	           D(7,2,6,9)      -9.36424        0.00007        2.58646      -6.77778
	          D(7,2,6,10)     108.68645        0.00020        2.80073     111.48717
	          D(7,2,6,11)    -134.35759        0.00015        2.74646    -131.61113
	           D(8,2,6,9)    -126.32020        0.00013        2.64072    -123.67948
	          D(8,2,6,10)      -8.26952        0.00025        2.85499      -5.41453
	          D(8,2,6,11)     108.68644        0.00020        2.80072     111.48717
	         D(10,6,9,12)      58.61856        0.00006        0.33715      58.95571
	         D(10,6,9,13)     178.69943        0.00009        0.56511     179.26455
	         D(10,6,9,14)     -61.35568        0.00010        0.57343     -60.78225
	         D(11,6,9,12)     -56.67740       -0.00004       -0.03344     -56.71084
	         D(11,6,9,13)      63.40347       -0.00001        0.19453      63.59799
	         D(11,6,9,14)     183.34835        0.00000        0.20284     183.55119
	-------------------------------------------------------------------------------

	                                 ==> Convergence Check <==                                  
    
	Measures of convergence in internal coordinates in au.
    
	Criteria marked as inactive (o), active & met (*), and active & unmet ( ).

	----------------------------------------------------------------------------------------------
	   Step    Total Energy     Delta E     Max Force     RMS Force      Max Disp      RMS Disp   
	----------------------------------------------------------------------------------------------
	  Convergence Criteria     1.00e-06 *    3.00e-04 *             o    1.20e-03 *             o
	----------------------------------------------------------------------------------------------
	     2    -155.46035637    8.41e-04      6.01e-03      1.56e-03 o    4.98e-02      1.81e-02 o  ~
	----------------------------------------------------------------------------------------------

Next Geometry in Ang 
	Fragment 1 (Ang)

	    C   0.8613499171  -0.1202163018  -1.6606519351
	    C   0.8446123734  -0.1424160313  -0.1189446381
	    H   0.8826685964   0.9032997356  -2.0221834066
	    H   1.7397066557  -0.6340555531  -2.0405794694
	    H  -0.0207457671  -0.6053854116  -2.0699878949
	    C  -0.3844568255   0.6039216832   0.4850485892
	    H   0.8860323774  -1.1610440147   0.2587744494
	    H   1.7610415898   0.3471665489   0.2047940150
	    C  -1.3012717964  -0.3209962889   1.3106460633
	    H  -0.0389687800   1.3799584759   1.1653024113
	    H  -0.9410061413   1.1059090317  -0.3025120917
	    H  -2.1335965333   0.2390102243   1.7271967737
	    H  -1.7033315384  -1.1237502507   0.6982966538
	    H  -0.7464351064  -0.7666663131   2.1305723010


    Structure for next step:
    Molecular point group: c1
    Full point group: C1

    Geometry (in Angstrom), charge = 0, multiplicity = 1:

    C       
    C             1    1.541958
    H             1    1.085700      2  110.287156
    H             1    1.086226      2  110.590019      3  119.737971
    H             1    1.086756      2  111.183711      3 -119.953193
    C             2    1.559628      1  112.884154      3   59.273413
    H             2    1.087194      1  111.127517      6  124.277765
    H             2    1.088274      1  106.368445      6 -120.055686
    C             6    1.541958      2  112.884136      1    dihedral
    H             6    1.088274      2  109.458977      9  118.264955
    H             6    1.087194      2  110.110542      9 -124.833350
    H             9    1.086226      6  110.589998     10   58.955714
    H             9    1.086756      6  111.183725     12  120.308833
    H             9    1.085700      6  110.287170     12 -119.737968

    dihedral  =  118.0555766641


Scratch directory: /tmp/
gradient() will perform analytic gradient computation.
   => Libint2 <=

    Primary   basis highest AM E, G, H:  5, 4, 3
    Auxiliary basis highest AM E, G, H:  6, 5, 4
    Onebody   basis highest AM E, G, H:  6, 5, 4
    Solid Harmonics ordering:            Gaussian

*** tstart() called on Barrys-MacBook-Pro.local
*** at Fri May 10 14:05:30 2024

   => Loading Basis Set <=

    Name: STO-3G
    Role: ORBITAL
    Keyword: BASIS
    atoms 1-2, 6, 9       entry C          line    61 file /Users/blink/psi4conda/share/psi4/basis/sto-3g.gbs 
    atoms 3-5, 7-8, 10-14 entry H          line    19 file /Users/blink/psi4conda/share/psi4/basis/sto-3g.gbs 


         ---------------------------------------------------------
                                   SCF
               by Justin Turney, Rob Parrish, Andy Simmonett
                          and Daniel G. A. Smith
                              RHF Reference
                        4 Threads,    953 MiB Core
         ---------------------------------------------------------

  ==> Geometry <==

    Molecular point group: c1
    Full point group: C1

    Geometry (in Angstrom), charge = 0, multiplicity = 1:

       Center              X                  Y                   Z               Mass       
    ------------   -----------------  -----------------  -----------------  -----------------
         C            0.846879777992    -0.128503042011    -1.667015718934    12.000000000000
         C            0.846879777992    -0.128503042011    -0.125057754848    12.000000000000
         H            0.846879777992     0.889847420955    -2.043455494056     1.007825032230
         H            1.729803661833    -0.632889722223    -2.049018022246     1.007825032230
         H           -0.031094546515    -0.634445870044    -2.059725191052     1.007825032230
         C           -0.388279199406     0.605656120128     0.481433402254    12.000000000000
         H            0.909694029982    -1.140668998148     0.266815619154     1.007825032230
         H            1.758197274184     0.381185175729     0.181632102954     1.007825032230
         C           -1.280355314312    -0.322508583290     1.330164586977    12.000000000000
         H           -0.048897349678     1.397263453348     1.146653776026     1.007825032230
         H           -0.961643479991     1.086618007721    -0.307185218839     1.007825032230
         H           -2.117656408472     0.229346744165     1.747619772777     1.007825032230
         H           -1.675120807171    -1.140793709250     0.733836307630     1.007825032230
         H           -0.709321726039    -0.746724302416     2.150351287110     1.007825032230

  Running in c1 symmetry.

  Rotational constants: A =      0.59164  B =      0.12497  C =      0.12442 [cm^-1]
  Rotational constants: A =  17737.03612  B =   3746.61301  C =   3729.95510 [MHz]
  Nuclear repulsion =  130.474813777531040

  Charge       = 0
  Multiplicity = 1
  Electrons    = 34
  Nalpha       = 17
  Nbeta        = 17

  ==> Algorithm <==

  SCF Algorithm Type is DIRECT.
  DIIS enabled.
  MOM disabled.
  Fractional occupation disabled.
  Guess Type is READ.
  Energy threshold   = 1.00e-08
  Density threshold  = 1.00e-08
  Integral threshold = 1.00e-08

  ==> Primary Basis <==

  -AO BASIS SET INFORMATION:
    Name                   = STO-3G
    Blend                  = STO-3G
    Total number of shells = 22
    Number of primitives   = 66
    Number of AO           = 30
    Number of SO           = 30
    Maximum AM             = 1
    Spherical Harmonics    = TRUE

  -Contraction Scheme:
    Atom   Type   All Primitives // Shells:
   ------ ------ --------------------------
       1     C     6s 3p // 2s 1p 
       2     C     6s 3p // 2s 1p 
       3     H     3s // 1s 
       4     H     3s // 1s 
       5     H     3s // 1s 
       6     C     6s 3p // 2s 1p 
       7     H     3s // 1s 
       8     H     3s // 1s 
       9     C     6s 3p // 2s 1p 
      10     H     3s // 1s 
      11     H     3s // 1s 
      12     H     3s // 1s 
      13     H     3s // 1s 
      14     H     3s // 1s 

   => Loading Basis Set <=

    Name: (STO-3G AUX)
    Role: JKFIT
    Keyword: DF_BASIS_SCF
    atoms 1-2, 6, 9       entry C          line   198 file /Users/blink/psi4conda/share/psi4/basis/def2-universal-jkfit.gbs 
    atoms 3-5, 7-8, 10-14 entry H          line    18 file /Users/blink/psi4conda/share/psi4/basis/def2-universal-jkfit.gbs 

   => Loading Basis Set <=

    Name: STO-3G
    Role: ORBITAL
    Keyword: BASIS
    atoms 1-2, 6, 9       entry C          line    61 file /Users/blink/psi4conda/share/psi4/basis/sto-3g.gbs 
    atoms 3-5, 7-8, 10-14 entry H          line    19 file /Users/blink/psi4conda/share/psi4/basis/sto-3g.gbs 

  Reading orbitals from file /tmp/butane_eclipsed_2.default.45084.180.npy, no projection.

  Starting with a DF guess...

  ==> Integral Setup <==

  DFHelper Memory: AOs need 0.005 GiB; user supplied 0.698 GiB. 
  Using in-core AOs.

  ==> MemDFJK: Density-Fitted J/K Matrices <==

    J tasked:                   Yes
    K tasked:                   Yes
    wK tasked:                   No
    OpenMP threads:               4
    Memory [MiB]:               715
    Algorithm:                 Core
    Schwarz Cutoff:           1E-08
    Mask sparsity (%):       0.6667
    Fitting Condition:        1E-10

   => Auxiliary Basis Set <=

  -AO BASIS SET INFORMATION:
    Name                   = (STO-3G AUX)
    Blend                  = DEF2-UNIVERSAL-JKFIT
    Total number of shells = 160
    Number of primitives   = 212
    Number of AO           = 556
    Number of SO           = 480
    Maximum AM             = 4
    Spherical Harmonics    = TRUE

  -Contraction Scheme:
    Atom   Type   All Primitives // Shells:
   ------ ------ --------------------------
       1     C     14s 10p 6d 2f 1g // 10s 8p 5d 1f 1g 
       2     C     14s 10p 6d 2f 1g // 10s 8p 5d 1f 1g 
       3     H     4s 2p 2d // 2s 2p 2d 
       4     H     4s 2p 2d // 2s 2p 2d 
       5     H     4s 2p 2d // 2s 2p 2d 
       6     C     14s 10p 6d 2f 1g // 10s 8p 5d 1f 1g 
       7     H     4s 2p 2d // 2s 2p 2d 
       8     H     4s 2p 2d // 2s 2p 2d 
       9     C     14s 10p 6d 2f 1g // 10s 8p 5d 1f 1g 
      10     H     4s 2p 2d // 2s 2p 2d 
      11     H     4s 2p 2d // 2s 2p 2d 
      12     H     4s 2p 2d // 2s 2p 2d 
      13     H     4s 2p 2d // 2s 2p 2d 
      14     H     4s 2p 2d // 2s 2p 2d 

  Minimum eigenvalue in the overlap matrix is 2.0134048918E-01.
  Reciprocal condition number of the overlap matrix is 7.7910668791E-02.
    Using symmetric orthogonalization.

  ==> Pre-Iterations <==

  SCF Guess: Orbitals guess was supplied from a previous computation.

   -------------------------------------------------------
    Irrep   Nso     Nmo     Nalpha   Nbeta   Ndocc  Nsocc
   -------------------------------------------------------
     A         30      30      17      17      17       0
   -------------------------------------------------------
    Total      30      30      17      17      17       0
   -------------------------------------------------------

  ==> Iterations <==

[...]
      12        1.775509072065    -0.747162639448    -0.992529873409
      13        1.087203178257     1.696178460261     0.596790903854
      14       -0.635738725516     0.853058475909    -1.854338123986


  -Core Hamiltonian Gradient:
     Atom            X                  Y                   Z
    ------   -----------------  -----------------  -----------------
       1        2.928407823358    -0.879667757525   -10.669678612189
       2        7.483600582288    -2.188363449646     1.924324067695
       3        0.347637296823     5.049756180198    -3.027204826933
       4        4.526805299830    -2.545522943926    -2.751081857701
       5       -4.124177564931    -2.726256653925    -3.138077144333
       6       -2.733204758785     7.353194146226     1.719405823999
       7        1.152531894585    -5.902268466221     1.961129658449
       8        5.552411998514     2.369799439273     2.077414590124
       9       -7.412923534683    -3.996086684150     7.229888588920
      10        1.466261176088     5.261198107168     3.306168779841
      11       -3.867192307840     2.950775194350    -4.043375095508
      12       -4.780177783141     2.270045615380     2.556735860391
      13       -2.730542244240    -4.726484049477    -2.119747976499
      14        2.190562122135    -2.290118677725     4.974098143744


  -Overlap Gradient:
     Atom            X                  Y                   Z
    ------   -----------------  -----------------  -----------------
       1       -0.000993902612     0.000455907447    -0.045853702897
       2        0.043914781149    -0.026009207000     0.024818379567
       3        0.000225701869    -0.162413501318     0.062983777229
       4       -0.140850942669     0.081345813148     0.062812795485
       5        0.140778198981     0.081064807263     0.062835680721
       6       -0.018884038218     0.053223688478    -0.005618871571
       7       -0.007266025105     0.163859169085    -0.056454052739
       8       -0.145618759693    -0.075948507270    -0.056365197402
       9       -0.024756302090    -0.028452623408     0.026102341878
      10       -0.050326449845    -0.137091388360    -0.093932066156
      11        0.099371356040    -0.063718369864     0.127102264249
      12        0.137798296601    -0.084664776912    -0.065154292457
      13        0.059271188834     0.136437330787     0.090609643359
      14       -0.092663103243     0.061911657922    -0.133886699266


  -Coulomb Gradient:
     Atom            X                  Y                   Z
    ------   -----------------  -----------------  -----------------
       1       -1.542207018100     0.459188115036     4.905875582985
       2       -3.286845150510     0.774124523214    -0.614993153147
       3       -0.167258554436    -3.452277627444     1.854589380053
       4       -3.020912680816     1.711453812591     1.701742180005
       5        2.888546569167     1.833958164510     1.913755922901
       6        1.181111176755    -3.063567255782    -1.000182973883
       7       -0.605135687693     3.978067467212    -1.343815957688
       8       -3.645236178593    -1.642574788931    -1.380163982864
       9        3.505815043087     1.675729153609    -3.399715301412
      10       -1.039756882136    -3.451147247203    -2.213399941395
      11        2.546508742904    -1.867324846461     2.832921226940
      12        3.125698666096    -1.597526014293    -1.621367527175
      13        1.695867010937     3.150409778223     1.602659881488
      14       -1.636195056661     1.491486765719    -3.237905336810


  -Exchange Gradient:
     Atom            X                  Y                   Z
    ------   -----------------  -----------------  -----------------
       1        0.002240134264    -0.001179572823     0.080206032025
       2       -0.079078750598     0.047341451149    -0.043510877571
       3       -0.000148993463     0.305405645144    -0.118668246604
       4        0.264732238939    -0.152875239179    -0.117773325779
       5       -0.264549065553    -0.152671563072    -0.118367681952
       6        0.035055724825    -0.095205148551     0.009743575905
       7        0.014416226598    -0.307623553790     0.105888126053
       8        0.273090107798     0.142615432942     0.106189708261
       9        0.042863622800     0.050218299082    -0.045609771695
      10        0.094792813716     0.257362393543     0.175990174998
      11       -0.186825529093     0.120172891285    -0.238132467622
      12       -0.258824659845     0.159298203162     0.122304666564
      13       -0.111804241420    -0.256515637414    -0.170309308983
      14        0.174040371032    -0.116343601479     0.252049396399


  -Total Gradient:
     Atom            X                  Y                   Z
    ------   -----------------  -----------------  -----------------
       1       -0.000015522972    -0.000021885701    -0.000005054381
       2       -0.000028390736     0.000036237014    -0.000011856724
       3        0.000003841412     0.000015652861    -0.000010132213
       4       -0.000014726275    -0.000002493859     0.000002628276
       5        0.000023476146    -0.000005911015     0.000010942664
       6        0.000029769268    -0.000034744389     0.000012907232
       7        0.000015421821    -0.000007720464    -0.000005879688
       8       -0.000009185228     0.000005259401     0.000024939531
       9       -0.000015662046    -0.000012012572    -0.000018859407
      10        0.000020493826     0.000007029633    -0.000016266126
      11       -0.000013607108     0.000009698474     0.000007273623
      12        0.000003591776    -0.000009612111    -0.000011166086
      13       -0.000005107632     0.000025882380     0.000003143219
      14        0.000005607747    -0.000005379654     0.000017380081


*** tstop() called on Barrys-MacBook-Pro.local at Fri May 10 14:05:46 2024
Module time:
	user time   =       0.57 seconds =       0.01 minutes
	system time =       0.01 seconds =       0.00 minutes
	total time  =          0 seconds =       0.00 minutes
Total time:
	user time   =    3634.64 seconds =      60.58 minutes
	system time =      60.01 seconds =       1.00 minutes
	total time  =      85462 seconds =    1424.37 minutes

    			-----------------------------------------

    			 OPTKING 3.0: for geometry optimizations 

    			     By R.A. King, Bethel University     

    			        with contributions from          

    			    A.V. Copan, J. Cayton, A. Heide      

    			-----------------------------------------

    
	                            ===> Fragment 1 <== 

	 Z (Atomic Numbers)          Masses                          Geom                  
	       6.000000            12.000000          1.59164771 -0.22071722 -3.16929907   
	       6.000000            12.000000          1.59164771 -0.22071722 -0.25598340   
	       1.000000             1.007825          1.59164771  1.69834050 -3.89684045   
	       1.000000             1.007825          3.25572711 -1.18157160 -3.89095036   
	       1.000000             1.007825         -0.07045679 -1.18112789 -3.89531308   
	       6.000000            12.000000         -0.75761044  1.12751774  0.89572103   
	       1.000000             1.007825          1.66668883 -2.16553814  0.40606883   
	       1.000000             1.007825          3.30727312  0.69656168  0.40832336   
	       6.000000            12.000000         -2.37079829 -0.62640816  2.57166158   
	       1.000000             1.007825         -0.14690803  2.73952059  2.01579422   
	       1.000000             1.007825         -1.93834644  1.87018054 -0.61444029   
	       1.000000             1.007825         -3.98732963  0.38614245  3.32978404   
	       1.000000             1.007825         -3.06440716 -2.22722851  1.49075581   
	       1.000000             1.007825         -1.26741518 -1.34582121  4.14553883   

	 - Coordinate -           - BOHR/RAD -       - ANG/DEG -
	 R(1,2)           =         2.913316           1.541660
	 R(1,3)           =         2.052340           1.086051
	 R(1,4)           =         2.052604           1.086191
	 R(1,5)           =         2.052334           1.086049
	 R(2,6)           =         2.943327           1.557542
	 R(2,7)           =         2.055790           1.087877
	 R(2,8)           =         2.055742           1.087852
	 R(6,9)           =         2.913316           1.541660
	 R(6,10)          =         2.055742           1.087852
	 R(6,11)          =         2.055790           1.087877
	 R(9,12)          =         2.052604           1.086191
	 R(9,13)          =         2.052334           1.086049
	 R(9,14)          =         2.052340           1.086051
	 B(1,2,6)         =         1.972833         113.035002
	 B(1,2,7)         =         1.898683         108.786505
	 B(1,2,8)         =         1.899849         108.853348
	 B(2,1,3)         =         1.933169         110.762412
	 B(2,1,4)         =         1.930053         110.583892
	 B(2,1,5)         =         1.932374         110.716876
	 B(2,6,9)         =         1.972833         113.035003
	 B(2,6,10)        =         1.912693         109.589250
	 B(2,6,11)        =         1.913952         109.661394
	 B(3,1,4)         =         1.889233         108.245093
	 B(3,1,5)         =         1.888270         108.189923
	 B(4,1,5)         =         1.889291         108.248384
	 B(6,2,7)         =         1.913952         109.661393
	 B(6,2,8)         =         1.912693         109.589252
	 B(6,9,12)        =         1.930053         110.583894
	 B(6,9,13)        =         1.932374         110.716875
	 B(6,9,14)        =         1.933169         110.762412
	 B(7,2,8)         =         1.862503         106.713582
	 B(9,6,10)        =         1.899849         108.853347
	 B(9,6,11)        =         1.898683         108.786506
	 B(10,6,11)       =         1.862503         106.713582
	 B(12,9,13)       =         1.889291         108.248383
	 B(12,9,14)       =         1.889233         108.245092
	 B(13,9,14)       =         1.888270         108.189923
	[D(1,2,6,9)[119.90,120.10]=         2.092642         119.899578
	 D(1,2,6,10)      =        -2.068167        -118.497217
	 D(1,2,6,11)      =        -0.029143          -1.669772
	 D(2,6,9,12)      =         3.144230         180.151086
	 D(2,6,9,13)      =        -1.044963         -59.871965
	 D(2,6,9,14)      =         1.049790          60.148562
	 D(3,1,2,6)       =         1.049790          60.148565
	 D(3,1,2,7)       =         3.180159         182.209668
	 D(3,1,2,8)       =        -1.079806         -61.868298
	 D(4,1,2,6)       =         3.144230         180.151087
	 D(4,1,2,7)       =        -1.008588         -57.787810
	 D(4,1,2,8)       =         1.014634          58.134224
	 D(5,1,2,6)       =        -1.044963         -59.871964
	 D(5,1,2,7)       =         1.085405          62.189139
	 D(5,1,2,8)       =         3.108626         178.111173
	 D(7,2,6,9)       =        -0.029143          -1.669770
	 D(7,2,6,10)      =         2.093233         119.933435
	 D(7,2,6,11)      =        -2.150928        -123.239119
	 D(8,2,6,9)       =        -2.068167        -118.497215
	 D(8,2,6,10)      =         0.054210           3.105989
	 D(8,2,6,11)      =         2.093233         119.933435
	 D(10,6,9,12)     =         1.014634          58.134225
	 D(10,6,9,13)     =         3.108626         178.111174
	 D(10,6,9,14)     =        -1.079806         -61.868298
	 D(11,6,9,12)     =        -1.008588         -57.787809
	 D(11,6,9,13)     =         1.085405          62.189140
	 D(11,6,9,14)     =         3.180159         182.209668


	        --- Internal Coordinate Step in ANG or DEG, aJ/ANG or AJ/DEG ---
	-------------------------------------------------------------------------------
	           Coordinate      Previous         Force          Change          New 
	           ----------      --------        ------          ------        ------
	               R(1,2)       1.54166       -0.00001       -0.00000       1.54166
	               R(1,3)       1.08605       -0.00015       -0.00003       1.08603
	               R(1,4)       1.08619        0.00010        0.00002       1.08621
	               R(1,5)       1.08605        0.00017        0.00003       1.08608
	               R(2,6)       1.55754        0.00026        0.00006       1.55760
	               R(2,7)       1.08788       -0.00005       -0.00001       1.08787
	               R(2,8)       1.08785       -0.00002       -0.00000       1.08785
	               R(6,9)       1.54166       -0.00001       -0.00000       1.54166
	              R(6,10)       1.08785       -0.00002       -0.00000       1.08785
	              R(6,11)       1.08788       -0.00005       -0.00001       1.08787
	              R(9,12)       1.08619        0.00010        0.00002       1.08621
	              R(9,13)       1.08605        0.00017        0.00003       1.08608
	              R(9,14)       1.08605       -0.00015       -0.00003       1.08603
	             B(1,2,6)     113.03500       -0.00000       -0.00710     113.02790
	             B(1,2,7)     108.78651        0.00000        0.00750     108.79401
	             B(1,2,8)     108.85335       -0.00000       -0.01079     108.84255
	             B(2,1,3)     110.76241       -0.00000       -0.00858     110.75384
	             B(2,1,4)     110.58389        0.00000        0.00203     110.58592
	             B(2,1,5)     110.71688        0.00000        0.00580     110.72267
	             B(2,6,9)     113.03500       -0.00000       -0.00710     113.02790
	            B(2,6,10)     109.58925        0.00000        0.01512     109.60437
	            B(2,6,11)     109.66139       -0.00000       -0.00881     109.65258
	             B(3,1,4)     108.24509        0.00000       -0.00147     108.24363
	             B(3,1,5)     108.18992       -0.00000       -0.00460     108.18532
	             B(4,1,5)     108.24838        0.00000        0.00686     108.25524
	             B(6,2,7)     109.66139       -0.00000       -0.00881     109.65258
	             B(6,2,8)     109.58925        0.00000        0.01511     109.60436
	            B(6,9,12)     110.58389        0.00000        0.00203     110.58592
	            B(6,9,13)     110.71688        0.00000        0.00580     110.72267
	            B(6,9,14)     110.76241       -0.00000       -0.00858     110.75384
	             B(7,2,8)     106.71358        0.00000        0.00470     106.71829
	            B(9,6,10)     108.85335       -0.00000       -0.01079     108.84255
	            B(9,6,11)     108.78651        0.00000        0.00750     108.79401
	           B(10,6,11)     106.71358        0.00000        0.00470     106.71829
	           B(12,9,13)     108.24838        0.00000        0.00686     108.25524
	           B(12,9,14)     108.24509        0.00000       -0.00147     108.24363
	           B(13,9,14)     108.18992       -0.00000       -0.00460     108.18532
	[D(1,2,6,9)[119.90,120.10]     119.89958        0.00000        0.00024     119.89982
	          D(1,2,6,10)    -118.49722       -0.00000       -0.00756    -118.50478
	          D(1,2,6,11)      -1.66977        0.00000        0.00179      -1.66798
	          D(2,6,9,12)     180.15109        0.00000        0.01585     180.16694
	          D(2,6,9,13)     -59.87197        0.00000        0.02954     -59.84242
	          D(2,6,9,14)      60.14856        0.00000        0.02196      60.17052
	           D(3,1,2,6)      60.14856        0.00000        0.02195      60.17052
	           D(3,1,2,7)     182.20967       -0.00000        0.01133     182.22100
	           D(3,1,2,8)     -61.86830       -0.00000        0.01514     -61.85316
	           D(4,1,2,6)     180.15109        0.00000        0.01585     180.16693
	           D(4,1,2,7)     -57.78781       -0.00000        0.00523     -57.78258
	           D(4,1,2,8)      58.13422       -0.00000        0.00903      58.14326
	           D(5,1,2,6)     -59.87196        0.00000        0.02954     -59.84242
	           D(5,1,2,7)      62.18914        0.00000        0.01892      62.20806
	           D(5,1,2,8)     178.11117        0.00000        0.02272     178.13390
	           D(7,2,6,9)      -1.66977        0.00000        0.00179      -1.66798
	          D(7,2,6,10)     119.93344       -0.00000       -0.00601     119.92742
	          D(7,2,6,11)    -123.23912        0.00000        0.00334    -123.23578
	           D(8,2,6,9)    -118.49722       -0.00000       -0.00757    -118.50478
	          D(8,2,6,10)       3.10599       -0.00000       -0.01537       3.09062
	          D(8,2,6,11)     119.93343       -0.00000       -0.00601     119.92742
	         D(10,6,9,12)      58.13423       -0.00000        0.00903      58.14325
	         D(10,6,9,13)     178.11117        0.00000        0.02272     178.13390
	         D(10,6,9,14)     -61.86830       -0.00000        0.01514     -61.85316
	         D(11,6,9,12)     -57.78781       -0.00000        0.00522     -57.78258
	         D(11,6,9,13)      62.18914        0.00000        0.01892      62.20806
	         D(11,6,9,14)     182.20967       -0.00000        0.01133     182.22100
	-------------------------------------------------------------------------------

	                                 ==> Convergence Check <==                                  
    
	Measures of convergence in internal coordinates in au.
    
	Criteria marked as inactive (o), active & met (*), and active & unmet ( ).

	----------------------------------------------------------------------------------------------
	   Step    Total Energy     Delta E     Max Force     RMS Force      Max Disp      RMS Disp   
	----------------------------------------------------------------------------------------------
	  Convergence Criteria     1.00e-06 *    3.00e-04 *             o    1.20e-03 *             o
	----------------------------------------------------------------------------------------------
	    13    -155.46123722   -2.02e-06      3.10e-05 *    1.17e-05 o    5.16e-04 *    1.94e-04 o  ~
	----------------------------------------------------------------------------------------------

Next Geometry in Ang 
	Fragment 1 (Ang)

	    C   0.8422083738  -0.1167998499  -1.6770764109
	    C   0.8423016348  -0.1168322630  -0.1354192818
	    H   0.8426080461   0.8987634622  -2.0618923148
	    H   1.7226215180  -0.6255275198  -2.0590633051
	    H  -0.0376317191  -0.6245306533  -2.0613371296
	    C  -0.4009243314   0.5967162956   0.4739721112
	    H   0.8818056577  -1.1459475032   0.2150311033
	    H   1.7503235511   0.3684555604   0.2158774524
	    C  -1.2545334739  -0.3314974079   1.3608077075
	    H  -0.0780197915   1.4497436866   1.0668417424
	    H  -1.0255949845   0.9896136592  -0.3253228605
	    H  -2.1101817668   0.2041556560   1.7617901602
	    H  -1.6211435271  -1.1789598218   0.7889948142
	    H  -0.6706257051  -0.7117769926   2.1938091691


    Final optimized geometry and variables:
    Molecular point group: c1
    Full point group: C1

    Geometry (in Angstrom), charge = 0, multiplicity = 1:

    C       
    C             1    1.541660
    H             1    1.086051      2  110.762412
    H             1    1.086191      2  110.583892      3  120.002523
    H             1    1.086049      2  110.716876      3 -120.020528
    C             2    1.557542      1  113.035002      3   60.148565
    H             2    1.087877      1  108.786505      6  122.061103
    H             2    1.087852      1  108.853348      6 -122.016863
    C             6    1.541660      2  113.035003      1    dihedral
    H             6    1.087852      2  109.589250      9  121.603205
    H             6    1.087877      2  109.661394      9 -121.569350
    H             9    1.086191      6  110.583894     10   58.134225
    H             9    1.086049      6  110.716875     12  119.976949
    H             9    1.086051      6  110.762412     12 -120.002523

    dihedral  =  119.8995781133


  Memory set to   3.725 GiB by Python driver.
