
    -----------------------------------------------------------------------
          Psi4: An Open-Source Ab Initio Electronic Structure Package
                               Psi4 1.10 release

                         Git: Rev {} zzzzzzz 


    D. G. A. Smith, L. A. Burns, A. C. Simmonett, R. M. Parrish,
    M. C. Schieber, R. Galvelis, P. Kraus, H. Kruse, R. Di Remigio,
    A. Alenaizan, A. M. James, S. Lehtola, J. P. Misiewicz, M. Scheurer,
    R. A. Shaw, J. B. Schriber, Y. Xie, Z. L. Glick, D. A. Sirianni,
    J. S. O'Brien, J. M. Waldrop, A. Kumar, E. G. Hohenstein,
    B. P. Pritchard, B. R. Brooks, H. F. Schaefer III, A. Yu. Sokolov,
    K. Patkowski, A. E. DePrince III, U. Bozkaya, R. A. King,
    F. A. Evangelista, J. M. Turney, T. D. Crawford, C. D. Sherrill,
    J. Chem. Phys. 152(18) 184108 (2020). https://doi.org/10.1063/5.0006002

                            Additional Code Authors
    E. T. Seidl, C. L. Janssen, E. F. Valeev, M. L. Leininger,
    J. F. Gonthier, R. M. Richard, H. R. McAlexander, M. Saitow, X. Wang,
    P. Verma, M. H. Lechner, A. Jiang, S. Behnle, A. G. Heide,
    M. F. Herbst, D. L. Poole, T. Győri, E. C. Mitchell, J. P. Pederson,
    and A. M. Wallace

             Previous Authors, Complete List of Code Contributors,
                       and Citations for Specific Modules
    https://github.com/psi4/psi4/blob/master/codemeta.json
    https://github.com/psi4/psi4/graphs/contributors
    https://psicode.org/psi4manual/master/introduction.html#citing-psifour

    -----------------------------------------------------------------------


    Psi4 started on: Monday, 30 March 2026 08:16PM

    Process ID: 79854
    Host:       Barrys-MacBook-Pro.local
    PSIDATADIR: /opt/anaconda3/envs/compchempsi4/share/psi4
    Memory:     953.7 MiB
    Threads:    4
    Addons:     a̶d̶c̶c̶, a̶m̶b̶i̶t̶, b̶s̶e̶, c̶c̶t̶3̶, c̶f̶o̶u̶r̶, c̶h̶e̶m̶p̶s̶2̶, c̶p̶p̶e̶, d̶d̶x̶,
                d̶f̶t̶d̶3̶, d̶f̶t̶d̶4̶, dkh, ecpint, einsums, f̶o̶r̶t̶e̶, g̶a̶u̶x̶c̶, g̶c̶p̶,
                g̶d̶m̶a̶, g̶e̶o̶m̶e̶t̶r̶i̶c̶, g̶p̶u̶_̶d̶f̶c̶c̶, i̶n̶t̶e̶g̶r̶a̶t̶o̶r̶x̶x̶,
                i̶p̶i̶, l̶i̶b̶e̶f̶p̶, m̶d̶i̶, m̶p̶2̶d̶, m̶r̶c̶c̶, ooo,
                o̶p̶e̶n̶f̶e̶r̶m̶i̶o̶n̶p̶s̶i̶4̶, pcmsolver, p̶s̶i̶4̶f̶o̶c̶k̶c̶i̶, p̶s̶i̶x̶a̶s̶,
                r̶e̶s̶p̶, s̶i̶m̶i̶n̶t̶, s̶n̶s̶m̶p̶2̶, v̶2̶r̶d̶m̶_̶c̶a̶s̶s̶c̶f̶
  Threads set to 4 by Python driver.

Scratch directory: /Users/blink/PSI4_SCRATCH/
gradient() will perform analytic gradient computation.
   => Libint2 <=

    Primary   basis highest AM E, G, H:  7, 6, 3
    Auxiliary basis highest AM E, G, H:  7, 7, 4
    Onebody   basis highest AM E, G, H:  -, -, -
    Solid Harmonics ordering:            Gaussian

*** tstart() called on Barrys-MacBook-Pro.local
*** at Mon Mar 30 20:33:28 2026

   => Loading Basis Set <=

    Name: STO-3G
    Role: ORBITAL
    Keyword: BASIS
    atoms 1-2, 6, 9       entry C          line    61 file /opt/anaconda3/envs/compchempsi4/share/psi4/basis/sto-3g.gbs 
    atoms 3-5, 7-8, 10-14 entry H          line    19 file /opt/anaconda3/envs/compchempsi4/share/psi4/basis/sto-3g.gbs 


         ---------------------------------------------------------
                                   SCF
               by Justin Turney, Rob Parrish, Andy Simmonett
                          and Daniel G. A. Smith
                              RHF Reference
                        4 Threads,    953 MiB Core
         ---------------------------------------------------------

  ==> Geometry <==

    Molecular point group: c1
    Full point group: C1

    Geometry (in Angstrom), charge = 0, multiplicity = 1:

       Center              X                  Y                   Z               Mass       
    ------------   -----------------  -----------------  -----------------  -----------------
         C            0.630165507294    -0.326942830914    -1.742321626664    12.000000000000
         C            0.630165507294    -0.326942830914    -0.242321626664    12.000000000000
         H            0.630165507294     0.618575744685    -2.067889781122     1.007825032230
         H            1.449008613513    -0.799702118714    -2.067889781122     1.007825032230
         H           -0.188677598925    -0.799702118714    -2.067889781122     1.007825032230
         C           -0.598099152034     0.382196100785     0.246030605021    12.000000000000
         H            0.630165507294    -1.272461406514     0.083246527793     1.007825032230
         H            1.449008613513     0.145816456885     0.083246527793     1.007825032230
         C           -0.661426361147     0.276024323781     1.740927664472    12.000000000000
         H           -0.548888447724     1.343282798775    -0.025797770113     1.007825032230
         H           -1.404859433581    -0.046363306041    -0.160755189888     1.007825032230
         H           -1.375829476867     0.887682007140     2.080785085513     1.007825032230
         H           -0.873583845476    -0.668531290401     1.991534714573     1.007825032230
         H            0.223899593706     0.539789955614     2.123844946827     1.007825032230

  Running in c1 symmetry.

  Rotational constants: A =      0.84026  B =      0.13317  C =      0.12421 [cm^-1]
  Rotational constants: A =  25190.23203  B =   3992.29139  C =   3723.63571 [MHz]
  Nuclear repulsion =  137.418256600393619

  Charge       = 0
  Multiplicity = 1
  Electrons    = 34
  Nalpha       = 17
  Nbeta        = 17

  ==> Algorithm <==

  SCF Algorithm Type is DIRECT.
  DIIS enabled.
  MOM disabled.
  Fractional occupation disabled.
  Guess Type is SAD.
  Energy threshold   = 1.00e-08
  Density threshold  = 1.00e-08
  Integral threshold = 1.00e-08

  ==> Primary Basis <==

  -AO BASIS SET INFORMATION:
    Name                   = STO-3G
    Blend                  = STO-3G
    Total number of shells = 22
    Number of primitives   = 66
    Number of AO           = 30
    Number of SO           = 30
    Maximum AM             = 1
    Spherical Harmonics    = TRUE

  -Contraction Scheme:
    Atom   Type   All Primitives // Shells:
   ------ ------ --------------------------
       1     C     6s 3p // 2s 1p 
       2     C     6s 3p // 2s 1p 
       3     H     3s // 1s 
       4     H     3s // 1s 
       5     H     3s // 1s 
       6     C     6s 3p // 2s 1p 
       7     H     3s // 1s 
       8     H     3s // 1s 
       9     C     6s 3p // 2s 1p 
      10     H     3s // 1s 
      11     H     3s // 1s 
      12     H     3s // 1s 
      13     H     3s // 1s 
      14     H     3s // 1s 

   => Loading Basis Set <=

    Name: (STO-3G AUX)
    Role: JKFIT
    Keyword: DF_BASIS_SCF
    atoms 1-2, 6, 9       entry C          line   198 file /opt/anaconda3/envs/compchempsi4/share/psi4/basis/def2-universal-jkfit.gbs 
    atoms 3-5, 7-8, 10-14 entry H          line    18 file /opt/anaconda3/envs/compchempsi4/share/psi4/basis/def2-universal-jkfit.gbs 

  Starting with a DF guess...

  ==> Integral Setup <==

  DFHelper Memory: AOs need 0.005 GiB; user supplied 0.698 GiB. 
  SCF_SUBTYPE=INCORE selected. In-core MEM_DF algorithm will be used.
  Using in-core AOs.

  ==> MemDFJK: Density-Fitted J/K Matrices <==

    J tasked:                   Yes
    K tasked:                   Yes
    wK tasked:                   No
    OpenMP threads:               4
    Memory [MiB]:               715
    Algorithm:                 Core
    Schwarz Cutoff:           1E-08
    Mask sparsity (%):       0.6667
    Fitting Condition:        1E-10

   => Auxiliary Basis Set <=

  -AO BASIS SET INFORMATION:
    Name                   = (STO-3G AUX)
    Blend                  = DEF2-UNIVERSAL-JKFIT
    Total number of shells = 160
    Number of primitives   = 212
    Number of AO           = 556
    Number of SO           = 480
    Maximum AM             = 4
    Spherical Harmonics    = TRUE

  -Contraction Scheme:
    Atom   Type   All Primitives // Shells:
   ------ ------ --------------------------
       1     C     14s 10p 6d 2f 1g // 10s 8p 5d 1f 1g 
       2     C     14s 10p 6d 2f 1g // 10s 8p 5d 1f 1g 
       3     H     4s 2p 2d // 2s 2p 2d 
       4     H     4s 2p 2d // 2s 2p 2d 
       5     H     4s 2p 2d // 2s 2p 2d 
       6     C     14s 10p 6d 2f 1g // 10s 8p 5d 1f 1g 
       7     H     4s 2p 2d // 2s 2p 2d 
       8     H     4s 2p 2d // 2s 2p 2d 
       9     C     14s 10p 6d 2f 1g // 10s 8p 5d 1f 1g 
      10     H     4s 2p 2d // 2s 2p 2d 
      11     H     4s 2p 2d // 2s 2p 2d 
      12     H     4s 2p 2d // 2s 2p 2d 
      13     H     4s 2p 2d // 2s 2p 2d 
      14     H     4s 2p 2d // 2s 2p 2d 

  Minimum eigenvalue in the overlap matrix is 1.6166001101E-01.
  Reciprocal condition number of the overlap matrix is 5.7233190794E-02.
    Using symmetric orthogonalization.

  ==> Pre-Iterations <==

  SCF Guess: Superposition of Atomic Densities via on-the-fly atomic UHF (no occupation information).

   -------------------------
    Irrep   Nso     Nmo    
   -------------------------
     A         30      30 
   -------------------------
    Total      30      30
   -------------------------

  ==> Iterations <==

                           Total Energy        Delta E     RMS |[F,P]|

   @DF-RHF iter SAD:  -141.59400354979516   -1.41594e+02   0.00000e+00 
   @DF-RHF iter   1:  -153.80951952805296   -1.22155e+01   5.05087e-02 DIIS/ADIIS
   @DF-RHF iter   2:  -155.36174393111125   -1.55222e+00   6.81174e-03 DIIS/ADIIS
   @DF-RHF iter   3:  -155.38640734564396   -2.46634e-02   5.42961e-04 DIIS/ADIIS
   @DF-RHF iter   4:  -155.38664330371950   -2.35958e-04   1.22327e-04 DIIS/ADIIS
   @DF-RHF iter   5:  -155.38665518064619   -1.18769e-05   1.79734e-05 DIIS
   @DF-RHF iter   6:  -155.38665549422598   -3.13580e-07   1.85767e-06 DIIS
   @DF-RHF iter   7:  -155.38665549717052   -2.94455e-09   1.70827e-07 DIIS
   @DF-RHF iter   8:  -155.38665549719579   -2.52669e-11   2.27164e-08 DIIS
   @DF-RHF iter   9:  -155.38665549719630   -5.11591e-13   4.00084e-09 DIIS

  DF guess converged.

  ==> DirectJK: Integral-Direct J/K Matrices <==

    J tasked:                  Yes
    K tasked:                  Yes
    wK tasked:                  No
    Integrals threads:           4
    Screening Type:           CSAM
    Screening Cutoff:        1E-08
    Incremental Fock:           No

   @RHF iter  10:  -155.38614840434158   -1.55386e+02   4.18985e-06 DIIS
   @RHF iter  11:  -155.38614841114384   -6.80225e-09   5.61309e-07 DIIS
   @RHF iter  12:  -155.38614841128597   -1.42137e-10   8.88703e-08 DIIS
   @RHF iter  13:  -155.38614841129186   -5.88329e-12   1.44145e-08 DIIS
   @RHF iter  14:  -155.38614841129197   -1.13687e-13   8.53585e-10 DIIS
  Energy and wave function converged.


  ==> Post-Iterations <==

    Orbital Energies [Eh]
    ---------------------

    Doubly Occupied:                                                      

       1A    -11.033656     2A    -11.033068     3A    -11.025946  
       4A    -11.025200     5A     -1.072670     6A     -0.982486  
       7A     -0.861577     8A     -0.799683     9A     -0.659412  
      10A     -0.594298    11A     -0.583042    12A     -0.570274  
      13A     -0.511071    14A     -0.502928    15A     -0.467023  
      16A     -0.454841    17A     -0.420791  

    Virtual:                                                              

      18A      0.661504    19A      0.674770    20A      0.702475  
      21A      0.731271    22A      0.782262    23A      0.818346  
      24A      0.839455    25A      0.844122    26A      0.868080  
      27A      0.882654    28A      0.914602    29A      0.932271  
      30A      0.939947  

    Final Occupation by Irrep:
              A 
    DOCC [    17 ]
    NA   [    17 ]
    NB   [    17 ]

  @RHF Final Energy:  -155.38614841129197

   => Energetics <=

    Nuclear Repulsion Energy =            137.4182566003936188
    One-Electron Energy =                -480.4128809022026871
    Two-Electron Energy =                 187.6084758905170702
    Total Energy =                       -155.3861484112919698

Computation Completed


Properties will be evaluated at   0.000000,   0.000000,   0.000000 [a0]

Properties computed using the SCF density matrix


 Multipole Moments:

 ------------------------------------------------------------------------------------
     Multipole            Electronic (a.u.)      Nuclear  (a.u.)        Total (a.u.)
 ------------------------------------------------------------------------------------

 L = 1.  Multiply by 2.5417464519 to convert [e a0] to [Debye]
 Dipole X            :          0.0097375           -0.0089912            0.0007463
 Dipole Y            :          0.0490156           -0.0483859            0.0006297
 Dipole Z            :          0.0269128           -0.0258409            0.0010719
 Magnitude           :                                                    0.0014500

 ------------------------------------------------------------------------------------

*** tstop() called on Barrys-MacBook-Pro.local at Mon Mar 30 20:33:30 2026
Module time:
	user time   =       3.63 seconds =       0.06 minutes
	system time =       0.09 seconds =       0.00 minutes
	total time  =          2 seconds =       0.03 minutes
Total time:
	user time   =     337.31 seconds =       5.62 minutes
	system time =       8.14 seconds =       0.14 minutes
	total time  =        984 seconds =      16.40 minutes

*** tstart() called on Barrys-MacBook-Pro.local
*** at Mon Mar 30 20:33:30 2026


         ------------------------------------------------------------
                                   SCF GRAD                          
                          Rob Parrish, Justin Turney,                
                       Andy Simmonett, and Alex Sokolov              
         ------------------------------------------------------------

  ==> Geometry <==

    Molecular point group: c1
    Full point group: C1

    Geometry (in Angstrom), charge = 0, multiplicity = 1:

       Center              X                  Y                   Z               Mass       
    ------------   -----------------  -----------------  -----------------  -----------------
         C            0.630165507294    -0.326942830914    -1.742321626664    12.000000000000
         C            0.630165507294    -0.326942830914    -0.242321626664    12.000000000000
         H            0.630165507294     0.618575744685    -2.067889781122     1.007825032230
         H            1.449008613513    -0.799702118714    -2.067889781122     1.007825032230
         H           -0.188677598925    -0.799702118714    -2.067889781122     1.007825032230
         C           -0.598099152034     0.382196100785     0.246030605021    12.000000000000
         H            0.630165507294    -1.272461406514     0.083246527793     1.007825032230
         H            1.449008613513     0.145816456885     0.083246527793     1.007825032230
         C           -0.661426361147     0.276024323781     1.740927664472    12.000000000000
         H           -0.548888447724     1.343282798775    -0.025797770113     1.007825032230
         H           -1.404859433581    -0.046363306041    -0.160755189888     1.007825032230
         H           -1.375829476867     0.887682007140     2.080785085513     1.007825032230
         H           -0.873583845476    -0.668531290401     1.991534714573     1.007825032230
         H            0.223899593706     0.539789955614     2.123844946827     1.007825032230

  Nuclear repulsion =  137.418256600393619

  ==> Basis Set <==

  -AO BASIS SET INFORMATION:
    Name                   = STO-3G
    Blend                  = STO-3G
    Total number of shells = 22
    Number of primitives   = 66
    Number of AO           = 30
    Number of SO           = 30
    Maximum AM             = 1
    Spherical Harmonics    = TRUE

  -Contraction Scheme:
    Atom   Type   All Primitives // Shells:
   ------ ------ --------------------------
       1     C     6s 3p // 2s 1p 
       2     C     6s 3p // 2s 1p 
       3     H     3s // 1s 
       4     H     3s // 1s 
       5     H     3s // 1s 
       6     C     6s 3p // 2s 1p 
       7     H     3s // 1s 
       8     H     3s // 1s 
       9     C     6s 3p // 2s 1p 
      10     H     3s // 1s 
      11     H     3s // 1s 
      12     H     3s // 1s 
      13     H     3s // 1s 
      14     H     3s // 1s 

  ==> DirectJKGrad: Integral-Direct SCF Gradients <==

    Gradient:                    1
    J tasked:                  Yes
    K tasked:                  Yes
    wK tasked:                  No
    Integrals threads:           4
    Schwarz Cutoff:          1E-08


  -Nuclear Gradient:
     Atom            X                  Y                   Z
    ------   -----------------  -----------------  -----------------
       1       -1.322661482892     0.724839971193     6.153192158854
       2       -4.069262607445     2.233900755926    -1.021452939280
       3       -0.186698104556    -2.013435064753     1.383604872911
       4       -1.888712167173     1.086759395714     1.227283705488
       5        1.643901169477     1.162689293485     1.389258698553
       6        3.881289781061    -2.608091196829     0.949195376172
       7       -0.403909366746     2.470315317636    -0.763593423088
       8       -2.337462550126    -0.912207613066    -0.778203933322
       9        1.527505067073    -0.385957110493    -6.128045475494
      10        0.262160964951    -2.533680554164     0.636498279004
      11        2.316632824937     0.764171721953     0.939432916530
      12        1.678704763994    -1.360857381541    -1.256544074684
      13        0.666030637728     2.041795037226    -1.192042283705
      14       -1.767518930283    -0.670242572286    -1.538583877939


  -Core Hamiltonian Gradient:
     Atom            X                  Y                   Z
    ------   -----------------  -----------------  -----------------
       1        2.619628010001    -1.438567544799   -11.807749001975
       2        7.581251173830    -4.128649595108     1.793944666734
       3        0.350782682209     5.018393362526    -2.913654798510
       4        4.515781396009    -2.601511659500    -2.571051442606
       5       -4.165329836656    -2.802722422878    -2.924080891217
       6       -7.354625983882     4.916433832069    -1.509585070419
       7        0.716468321023    -5.994581070385     1.840001452109
       8        5.539130219424     2.429638504794     1.851338568922
       9       -2.989949841940     0.768822599053    11.786760376484
      10       -0.352647149847     6.109234345953    -1.567420510932
      11       -5.445598420412    -2.124486731740    -2.356418428805
      12       -3.983320030688     3.300132024939     2.639586693596
      13       -1.538712957818    -5.049317233348     2.458992018159
      14        4.507142418747     1.597181588425     3.279336368462


  -Overlap Gradient:
     Atom            X                  Y                   Z
    ------   -----------------  -----------------  -----------------
       1        0.003070232721    -0.001606214400    -0.034730285560
       2        0.032075783083    -0.018478396813     0.015269610522
       3        0.000482257879    -0.144481875521     0.046109608463
       4       -0.124695556018     0.072037814794     0.046642264654
       5        0.125486808585     0.071791892560     0.046031864975
       6       -0.024597093596     0.017814036627    -0.022516337902
       7        0.001218502812     0.143892142134    -0.048409603055
       8       -0.124180732926    -0.073271957829    -0.047944245118
       9       -0.004817983678    -0.000246821452     0.033314145119
      10       -0.009541125823    -0.145874591150     0.041639476671
      11        0.120833270645     0.067595162128     0.063053187339
      12        0.108392253925    -0.093838644348    -0.048878173536
      13        0.032432650924     0.144180698146    -0.034955447534
      14       -0.136159268531    -0.039513244877    -0.054626065039


  -Coulomb Gradient:
     Atom            X                  Y                   Z
    ------   -----------------  -----------------  -----------------
       1       -1.299654065573     0.715168745502     5.576620503048
       2       -3.442643182396     1.854658849185    -0.716536678309
       3       -0.164270302499    -3.233901108317     1.612091731827
       4       -2.825747883267     1.629450799741     1.425442618376
       5        2.719501198870     1.754690385295     1.616912507887
       6        3.411561505068    -2.264580418427     0.497780815141
       7       -0.314606236174     3.753879785498    -1.156723836507
       8       -3.401478743897    -1.630348885028    -1.153601912483
       9        1.461768381345    -0.390128516947    -5.580635727094
      10        0.080642777479    -3.809084497559     0.998040358523
      11        3.326125301813     1.462024334480     1.516305236703
      12        2.478175193434    -2.087264593237    -1.468149765758
      13        0.924101343654     3.236439379392    -1.330727920725
      14       -2.953475287857    -0.991004259578    -1.836817930628


  -Exchange Gradient:
     Atom            X                  Y                   Z
    ------   -----------------  -----------------  -----------------
       1       -0.007567885916     0.003915887065     0.045272757355
       2       -0.041765500769     0.024656736951    -0.012600257259
       3       -0.000289574413     0.286940245526    -0.092383097094
       4        0.248183422646    -0.143405523047    -0.090865600214
       5       -0.248835972320    -0.143165352672    -0.092424516372
       6        0.027344420186    -0.020905106871     0.028528103454
       7       -0.001824166487    -0.283886631441     0.093969946530
       8        0.245264730212     0.143956421521     0.093124658040
       9        0.010663068645    -0.002756891359    -0.043717547233
      10        0.018368307023     0.287476948132    -0.080864619705
      11       -0.238752088197    -0.132645563490    -0.122722866205
      12       -0.215552616721     0.186896349834     0.094959637797
      13       -0.064970781672    -0.286135294322     0.069940829920
      14        0.269734637783     0.079057774174     0.109782570985


  -Total Gradient:
     Atom            X                  Y                   Z
    ------   -----------------  -----------------  -----------------
       1       -0.007185191659     0.003750844561    -0.067393868278
       2        0.059655666302    -0.033911649859     0.058624402408
       3        0.000006958620    -0.086484440539     0.035768317597
       4       -0.075190787804     0.043330827701     0.037451545697
       5        0.074723367955     0.043283795790     0.035697663825
       6       -0.059027371162     0.040671146568    -0.056597113554
       7       -0.002652945573     0.089619543442    -0.034755464013
       8       -0.078727077314    -0.042233529608    -0.035286863961
       9        0.005168691445    -0.010266741198     0.067675771783
      10       -0.001016226216    -0.091928348788     0.027892983561
      11        0.079240888787     0.036658923332     0.039650045562
      12        0.066399563944    -0.054932244354    -0.039025682585
      13        0.018880892816     0.086962587094    -0.028792803885
      14       -0.080276430141    -0.024520714142    -0.040908934159


*** tstop() called on Barrys-MacBook-Pro.local at Mon Mar 30 20:33:30 2026
Module time:
	user time   =       0.53 seconds =       0.01 minutes
	system time =       0.00 seconds =       0.00 minutes
	total time  =          0 seconds =       0.00 minutes
Total time:
	user time   =     337.85 seconds =       5.63 minutes
	system time =       8.14 seconds =       0.14 minutes
	total time  =        984 seconds =      16.40 minutes

    			-----------------------------------------

    			 OPTKING 3.0: for geometry optimizations 

    			     By R.A. King, Bethel University     

    			        with contributions from          

    			    A.V. Copan, J. Cayton, A. Heide      

    			-----------------------------------------

    
	                            ===> Fragment 1 <== 

	 Z (Atomic Numbers)          Masses                          Geom                  
	       6.000000            12.000000          1.19084022 -0.61783241 -3.29251070   
	       6.000000            12.000000          1.19084022 -0.61783241 -0.45792151   
	       1.000000             1.007825          1.19084022  1.16893875 -3.90774534   
	       1.000000             1.007825          2.73822943 -1.51121799 -3.90774534   
	       1.000000             1.007825         -0.35654899 -1.51121799 -3.90774534   
	       6.000000            12.000000         -1.13024359  0.72224596  0.46493046   
	       1.000000             1.007825          1.19084022 -2.40460356  0.15731314   
	       1.000000             1.007825          2.73822943  0.27555317  0.15731314   
	       6.000000            12.000000         -1.24991467  0.52161038  3.28987649   
	       1.000000             1.007825         -1.03724884  2.53843660 -0.04875072   
	       1.000000             1.007825         -2.65479957 -0.08761395 -0.30378328   
	       1.000000             1.007825         -2.59994091  1.67747588  3.93211394   
	       1.000000             1.007825         -1.65083422 -1.26334105  3.76345518   
	       1.000000             1.007825          0.42310891  1.02005518  4.01348528   

	 - Coordinate -           - BOHR/RAD -       - ANG/DEG -
	 R(1,2)           =         2.834589           1.500000
	 R(1,3)           =         1.889726           1.000000
	 R(1,4)           =         1.889726           1.000000
	 R(1,5)           =         1.889726           1.000000
	 R(2,6)           =         2.834589           1.500000
	 R(2,7)           =         1.889726           1.000000
	 R(2,8)           =         1.889726           1.000000
	 R(6,9)           =         2.834589           1.500000
	 R(6,10)          =         1.889726           1.000000
	 R(6,11)          =         1.889726           1.000000
	 R(9,12)          =         1.889726           1.000000
	 R(9,13)          =         1.889726           1.000000
	 R(9,14)          =         1.889726           1.000000
	 B(1,2,6)         =         1.902409         109.000000
	 B(1,2,7)         =         1.902409         109.000000
	 B(1,2,8)         =         1.902409         109.000000
	 B(2,1,3)         =         1.902409         109.000000
	 B(2,1,4)         =         1.902409         109.000000
	 B(2,1,5)         =         1.902409         109.000000
	 B(2,6,9)         =         1.902409         109.000000
	 B(2,6,10)        =         1.902409         109.000000
	 B(2,6,11)        =         1.902409         109.000000
	 B(3,1,4)         =         1.918785         109.938303
	 B(3,1,5)         =         1.918785         109.938303
	 B(4,1,5)         =         1.918785         109.938303
	 B(6,2,7)         =         1.918785         109.938303
	 B(6,2,8)         =         1.918785         109.938303
	 B(6,9,12)        =         1.902409         109.000000
	 B(6,9,13)        =         1.902409         109.000000
	 B(6,9,14)        =         1.902409         109.000000
	 B(7,2,8)         =         1.918785         109.938303
	 B(9,6,10)        =         1.918785         109.938303
	 B(9,6,11)        =         1.918785         109.938303
	 B(10,6,11)       =         1.918785         109.938303
	 B(12,9,13)       =         1.918785         109.938303
	 B(12,9,14)       =         1.918785         109.938303
	 B(13,9,14)       =         1.918785         109.938303
	 D(1,2,6,9)       =         3.054326         175.000000
	 D(1,2,6,10)      =        -1.134464         -65.000000
	 D(1,2,6,11)      =         0.959931          55.000000
	 D(2,6,9,12)      =         2.956914         169.418677
	 D(2,6,9,13)      =        -1.231876         -70.581323
	 D(2,6,9,14)      =         0.862519          49.418677
	 D(3,1,2,6)       =         1.047198          60.000000
	 D(3,1,2,7)       =         3.141593         180.000000
	 D(3,1,2,8)       =        -1.047198         -60.000000
	 D(4,1,2,6)       =         3.141593         180.000000
	 D(4,1,2,7)       =        -1.047198         -60.000000
	 D(4,1,2,8)       =         1.047198          60.000000
	 D(5,1,2,6)       =        -1.047198         -60.000000
	 D(5,1,2,7)       =         1.047198          60.000000
	 D(5,1,2,8)       =         3.141593         180.000000
	 D(7,2,6,9)       =         0.970077          55.581323
	 D(7,2,6,10)      =         3.064472         175.581323
	 D(7,2,6,11)      =        -1.124318         -64.418677
	 D(8,2,6,9)       =        -1.144610         -65.581323
	 D(8,2,6,10)      =         0.949785          54.418677
	 D(8,2,6,11)      =         3.044180         174.418677
	 D(10,6,9,12)     =         0.872665          50.000000
	 D(10,6,9,13)     =         2.967060         170.000000
	 D(10,6,9,14)     =        -1.221730         -70.000000
	 D(11,6,9,12)     =        -1.242022         -71.162647
	 D(11,6,9,13)     =         0.852373          48.837353
	 D(11,6,9,14)     =         2.946768         168.837353


	        --- Internal Coordinate Step in ANG or DEG, aJ/ANG or AJ/DEG ---
	-------------------------------------------------------------------------------
	           Coordinate      Previous         Force          Change          New 
	           ----------      --------        ------          ------        ------
	               R(1,2)       1.50000        0.34210        0.04497       1.54497
	               R(1,3)       1.00000        0.76964        0.07703       1.07703
	               R(1,4)       1.00000        0.77648        0.07772       1.07772
	               R(1,5)       1.00000        0.76844        0.07691       1.07691
	               R(2,6)       1.50000        0.34649        0.04554       1.54554
	               R(2,7)       1.00000        0.79135        0.07920       1.07920
	               R(2,8)       1.00000        0.79026        0.07909       1.07909
	               R(6,9)       1.50000        0.33899        0.04456       1.54456
	              R(6,10)       1.00000        0.79078        0.07915       1.07915
	              R(6,11)       1.00000        0.78901        0.07897       1.07897
	              R(9,12)       1.00000        0.77690        0.07776       1.07776
	              R(9,13)       1.00000        0.76919        0.07699       1.07699
	              R(9,14)       1.00000        0.76788        0.07685       1.07685
	             B(1,2,6)     109.00000        0.00119        2.46591     111.46591
	             B(1,2,7)     109.00000       -0.00022       -0.25709     108.74291
	             B(1,2,8)     109.00000       -0.00023       -0.28313     108.71687
	             B(2,1,3)     109.00000        0.00039        0.88820     109.88820
	             B(2,1,4)     109.00000        0.00058        1.33097     110.33097
	             B(2,1,5)     109.00000        0.00039        0.88119     109.88119
	             B(2,6,9)     109.00000        0.00121        2.50115     111.50115
	            B(2,6,10)     109.00000       -0.00027       -0.38969     108.61031
	            B(2,6,11)     109.00000       -0.00028       -0.43910     108.56090
	             B(3,1,4)     109.93830       -0.00046       -1.07415     108.86415
	             B(3,1,5)     109.93830       -0.00040       -0.95937     108.97893
	             B(4,1,5)     109.93830       -0.00046       -1.07186     108.86644
	             B(6,2,7)     109.93830       -0.00036       -0.73469     109.20361
	             B(6,2,8)     109.93830       -0.00038       -0.79927     109.13904
	            B(6,9,12)     109.00000        0.00062        1.42878     110.42878
	            B(6,9,13)     109.00000        0.00037        0.84718     109.84718
	            B(6,9,14)     109.00000        0.00038        0.86067     109.86067
	             B(7,2,8)     109.93830        0.00002       -0.38797     109.55034
	            B(9,6,10)     109.93830       -0.00034       -0.63471     109.30359
	            B(9,6,11)     109.93830       -0.00034       -0.64967     109.28864
	           B(10,6,11)     109.93830        0.00003       -0.38720     109.55111
	           B(12,9,13)     109.93830       -0.00047       -1.09126     108.84704
	           B(12,9,14)     109.93830       -0.00047       -1.09937     108.83893
	           B(13,9,14)     109.93830       -0.00040       -0.95180     108.98650
	           D(1,2,6,9)     175.00000        0.00002        0.08837     175.08837
	          D(1,2,6,10)     -65.00000        0.00017        0.58942     -64.41058
	          D(1,2,6,11)      55.00000       -0.00012       -0.36175      54.63825
	          D(2,6,9,12)     169.41868        0.00004        0.19163     169.61030
	          D(2,6,9,13)     -70.58132        0.00006        0.25358     -70.32774
	          D(2,6,9,14)      49.41868        0.00003        0.13111      49.54979
	           D(3,1,2,6)      60.00000       -0.00003       -0.09277      59.90723
	           D(3,1,2,7)     180.00000        0.00011        0.34898     180.34898
	           D(3,1,2,8)     -60.00000       -0.00013       -0.43725     -60.43725
	           D(4,1,2,6)     180.00000       -0.00001       -0.04528     179.95472
	           D(4,1,2,7)     -60.00000        0.00012        0.39648     -59.60352
	           D(4,1,2,8)      60.00000       -0.00012       -0.38976      59.61024
	           D(5,1,2,6)     -60.00000        0.00000        0.00059     -59.99941
	           D(5,1,2,7)      60.00000        0.00014        0.44235      60.44235
	           D(5,1,2,8)     180.00000       -0.00011       -0.34389     179.65611
	           D(7,2,6,9)      55.58132       -0.00022       -0.66373      54.91759
	          D(7,2,6,10)     175.58132       -0.00006       -0.16268     175.41865
	          D(7,2,6,11)     -64.41868       -0.00036       -1.11385     -65.53252
	           D(8,2,6,9)     -65.58132        0.00024        0.76563     -64.81569
	          D(8,2,6,10)      54.41868        0.00039        1.26668      55.68536
	          D(8,2,6,11)     174.41868        0.00009        0.31551     174.73419
	         D(10,6,9,12)      50.00000       -0.00017       -0.48319      49.51681
	         D(10,6,9,13)     170.00000       -0.00015       -0.42123     169.57877
	         D(10,6,9,14)     -70.00000       -0.00018       -0.54370     -70.54370
	         D(11,6,9,12)     -71.16265        0.00024        0.79498     -70.36767
	         D(11,6,9,13)      48.83735        0.00025        0.85694      49.69429
	         D(11,6,9,14)     168.83735        0.00022        0.73447     169.57182
	-------------------------------------------------------------------------------

	                                 ==> Convergence Check <==                                  
    
	Measures of convergence in internal coordinates in au.
    
	Criteria marked as inactive (o), active & met (*), and active & unmet ( ).

	----------------------------------------------------------------------------------------------~
	   Step    Total Energy     Delta E     Max Force     RMS Force      Max Disp      RMS Disp   ~
	----------------------------------------------------------------------------------------------~
	  Convergence Criteria     1.00e-06 *    3.00e-04 *             o    1.20e-03 *             o~
	----------------------------------------------------------------------------------------------~
	     1    -155.38614841   -1.55e+02      9.61e-02      3.87e-02 o    1.50e-01      6.25e-02 o  ~
	----------------------------------------------------------------------------------------------

Next Geometry in Ang 
	Fragment 1 (Ang)

	    C   0.6635662575  -0.3434922751  -1.8159622239
	    C   0.6431666394  -0.3341300233  -0.2711566853
	    H   0.6669225785   0.6670625515  -2.1884718060
	    H   1.5439377910  -0.8504146446  -2.1757481015
	    H  -0.2086528427  -0.8519894656  -2.1906629585
	    C  -0.6097183675   0.3885486601   0.2735668468
	    H   0.6463069394  -1.3539532231   0.0818740757
	    H   1.5267539072   0.1735741352   0.0837434735
	    C  -0.6940743091   0.2927692285   1.8128445303
	    H  -0.5621486700   1.4266982615  -0.0171902432
	    H  -1.4855793751  -0.0682185962  -0.1604899740
	    H  -1.4632809035   0.9473447044   2.1888947186
	    H  -0.9244136336  -0.7181409731   2.1042238464
	    H   0.2484285226   0.5770631452   2.2492850164


    Structure for next step:
    Molecular point group: c1
    Full point group: C1

    Geometry (in Angstrom), charge = 0, multiplicity = 1:

    C       
    C             1    1.544969
    H             1    1.077031      2  109.888203
    H             1    1.077715      2  110.330968      3  120.047498
    H             1    1.076910      2  109.881193      3 -119.906634
    C             2    1.545545      1  111.465907      3   59.907226
    H             2    1.079203      1  108.742909      6  120.441759
    H             2    1.079094      1  108.716869      6 -120.344479
    C             6    1.544560      2  111.501147      1    dihedral
    H             6    1.079146      2  108.610314      9  120.501051
    H             6    1.078969      2  108.560897      9 -120.450118
    H             9    1.077758      6  110.428776     10   49.516813
    H             9    1.076985      6  109.847184     12  120.061958
    H             9    1.076854      6  109.860666     12 -120.060512

    dihedral  =  175.0883656790


Scratch directory: /Users/blink/PSI4_SCRATCH/
gradient() will perform analytic gradient computation.
   => Libint2 <=

    Primary   basis highest AM E, G, H:  7, 6, 3
    Auxiliary basis highest AM E, G, H:  7, 7, 4
    Onebody   basis highest AM E, G, H:  -, -, -
    Solid Harmonics ordering:            Gaussian

*** tstart() called on Barrys-MacBook-Pro.local
*** at Mon Mar 30 20:33:30 2026

   => Loading Basis Set <=

    Name: STO-3G
    Role: ORBITAL
    Keyword: BASIS
    atoms 1-2, 6, 9       entry C          line    61 file /opt/anaconda3/envs/compchempsi4/share/psi4/basis/sto-3g.gbs 
    atoms 3-5, 7-8, 10-14 entry H          line    19 file /opt/anaconda3/envs/compchempsi4/share/psi4/basis/sto-3g.gbs 


         ---------------------------------------------------------
                                   SCF
               by Justin Turney, Rob Parrish, Andy Simmonett
                          and Daniel G. A. Smith
                              RHF Reference
                        4 Threads,    953 MiB Core
         ---------------------------------------------------------

  ==> Geometry <==

    Molecular point group: c1
    Full point group: C1

    Geometry (in Angstrom), charge = 0, multiplicity = 1:

       Center              X                  Y                   Z               Mass       
    ------------   -----------------  -----------------  -----------------  -----------------
         C            0.638620252245    -0.333297657395    -1.826035672760    12.000000000000
         C            0.638620252245    -0.333297657395    -0.281067081455    12.000000000000
         H            0.638620252245     0.679497237602    -2.192426464011     1.007825032230
         H            1.513384683659    -0.839310502089    -2.200479786196     1.007825032230
         H           -0.239250520309    -0.838231008665    -2.192261572428     1.007825032230
         C           -0.605851683088     0.387887817944     0.284521248137    12.000000000000
         H            0.644844981230    -1.355251822442     0.065704998878     1.007825032230
         H            1.527595701395     0.170946429540     0.065205422242     1.007825032230
         C           -0.670037521846     0.282875349980     1.824169900024    12.000000000000
         H           -0.560520926577     1.427715246749    -0.000542248468     1.007825032230
         H           -1.488067419618    -0.064950417906    -0.140692911177     1.007825032230
         H           -1.433204409823     0.936276925823     2.214303549495     1.007825032230
         H           -0.898071539787    -0.729449647798     2.112433895935     1.007825032230
         H            0.278579505268     0.563131645943     2.249842381125     1.007825032230

  Running in c1 symmetry.

  Rotational constants: A =      0.77655  B =      0.12109  C =      0.11364 [cm^-1]
  Rotational constants: A =  23280.31638  B =   3630.27735  C =   3406.84903 [MHz]
  Nuclear repulsion =  130.777635054586767

  Charge       = 0
  Multiplicity = 1
  Electrons    = 34
  Nalpha       = 17
  Nbeta        = 17

  ==> Algorithm <==

  SCF Algorithm Type is DIRECT.
  DIIS enabled.
  MOM disabled.
  Fractional occupation disabled.
  Guess Type is READ.
  Energy threshold   = 1.00e-08
  Density threshold  = 1.00e-08
  Integral threshold = 1.00e-08

  ==> Primary Basis <==

  -AO BASIS SET INFORMATION:
    Name                   = STO-3G
    Blend                  = STO-3G
    Total number of shells = 22
    Number of primitives   = 66
    Number of AO           = 30
    Number of SO           = 30
    Maximum AM             = 1
    Spherical Harmonics    = TRUE

  -Contraction Scheme:
    Atom   Type   All Primitives // Shells:
   ------ ------ --------------------------
       1     C     6s 3p // 2s 1p 
       2     C     6s 3p // 2s 1p 
       3     H     3s // 1s 
       4     H     3s // 1s 
       5     H     3s // 1s 
       6     C     6s 3p // 2s 1p 
       7     H     3s // 1s 
       8     H     3s // 1s 
       9     C     6s 3p // 2s 1p 
      10     H     3s // 1s 
      11     H     3s // 1s 
      12     H     3s // 1s 
      13     H     3s // 1s 
      14     H     3s // 1s 

   => Loading Basis Set <=

    Name: (STO-3G AUX)
    Role: JKFIT
    Keyword: DF_BASIS_SCF
    atoms 1-2, 6, 9       entry C          line   198 file /opt/anaconda3/envs/compchempsi4/share/psi4/basis/def2-universal-jkfit.gbs 
    atoms 3-5, 7-8, 10-14 entry H          line    18 file /opt/anaconda3/envs/compchempsi4/share/psi4/basis/def2-universal-jkfit.gbs 

   => Loading Basis Set <=

    Name: STO-3G
    Role: ORBITAL
    Keyword: BASIS
    atoms 1-2, 6, 9       entry C          line    61 file /opt/anaconda3/envs/compchempsi4/share/psi4/basis/sto-3g.gbs 
    atoms 3-5, 7-8, 10-14 entry H          line    19 file /opt/anaconda3/envs/compchempsi4/share/psi4/basis/sto-3g.gbs 

  Reading orbitals from file /Users/blink/PSI4_SCRATCH/butane_2.default.79854.180.npy, no projection.

  Starting with a DF guess...

  ==> Integral Setup <==

  DFHelper Memory: AOs need 0.005 GiB; user supplied 0.698 GiB. 
  SCF_SUBTYPE=INCORE selected. In-core MEM_DF algorithm will be used.
  Using in-core AOs.

  ==> MemDFJK: Density-Fitted J/K Matrices <==

    J tasked:                   Yes
    K tasked:                   Yes
    wK tasked:                   No
    OpenMP threads:               4
    Memory [MiB]:               715
    Algorithm:                 Core
    Schwarz Cutoff:           1E-08
    Mask sparsity (%):       0.6667
    Fitting Condition:        1E-10

   => Auxiliary Basis Set <=

  -AO BASIS SET INFORMATION:
    Name                   = (STO-3G AUX)
    Blend                  = DEF2-UNIVERSAL-JKFIT
    Total number of shells = 160
    Number of primitives   = 212
    Number of AO           = 556
    Number of SO           = 480
    Maximum AM             = 4
    Spherical Harmonics    = TRUE

  -Contraction Scheme:
    Atom   Type   All Primitives // Shells:
   ------ ------ --------------------------
       1     C     14s 10p 6d 2f 1g // 10s 8p 5d 1f 1g 
       2     C     14s 10p 6d 2f 1g // 10s 8p 5d 1f 1g 
       3     H     4s 2p 2d // 2s 2p 2d 
       4     H     4s 2p 2d // 2s 2p 2d 
       5     H     4s 2p 2d // 2s 2p 2d 
       6     C     14s 10p 6d 2f 1g // 10s 8p 5d 1f 1g 
       7     H     4s 2p 2d // 2s 2p 2d 
       8     H     4s 2p 2d // 2s 2p 2d 
       9     C     14s 10p 6d 2f 1g // 10s 8p 5d 1f 1g 
      10     H     4s 2p 2d // 2s 2p 2d 
      11     H     4s 2p 2d // 2s 2p 2d 
      12     H     4s 2p 2d // 2s 2p 2d 
      13     H     4s 2p 2d // 2s 2p 2d 
      14     H     4s 2p 2d // 2s 2p 2d 

  Minimum eigenvalue in the overlap matrix is 1.9836377922E-01.
  Reciprocal condition number of the overlap matrix is 7.5977814182E-02.
    Using symmetric orthogonalization.

  ==> Pre-Iterations <==

  SCF Guess: Orbitals guess was supplied from a previous computation.

   -------------------------------------------------------
    Irrep   Nso     Nmo     Nalpha   Nbeta   Ndocc  Nsocc
   -------------------------------------------------------
     A         30      30      17      17      17       0
   -------------------------------------------------------
    Total      30      30      17      17      17       0
   -------------------------------------------------------

  ==> Iterations <==

                           Total Energy        Delta E     RMS |[F,P]|

   @DF-RHF iter   0:  -155.20839511669107   -1.55208e+02   8.37790e-03 
   @DF-RHF iter   1:  -155.46453561292796   -2.56140e-01   1.15239e-03 DIIS/ADIIS
   @DF-RHF iter   2:  -155.46539866934489   -8.63056e-04   2.21751e-04 DIIS/ADIIS
   @DF-RHF iter   3:  -155.46542647046448   -2.78011e-05   4.32402e-05 DIIS
   @DF-RHF iter   4:  -155.46542812535137   -1.65489e-06   2.63621e-06 DIIS
   @DF-RHF iter   5:  -155.46542813205841   -6.70704e-09   5.26821e-07 DIIS
   @DF-RHF iter   6:  -155.46542813233856   -2.80153e-10   1.04870e-07 DIIS
   @DF-RHF iter   7:  -155.46542813234743   -8.86757e-12   9.27397e-09 DIIS

  DF guess converged.

  ==> DirectJK: Integral-Direct J/K Matrices <==

    J tasked:                  Yes
    K tasked:                  Yes
    wK tasked:                  No
    Integrals threads:           4
    Screening Type:           CSAM
    Screening Cutoff:        1E-08
    Incremental Fock:           No

   @RHF iter   8:  -155.46491445336915   -1.55465e+02   4.36093e-06 DIIS
   @RHF iter   9:  -155.46491446166803   -8.29888e-09   6.96679e-07 DIIS
   @RHF iter  10:  -155.46491446190859   -2.40561e-10   1.14049e-07 DIIS
   @RHF iter  11:  -155.46491446191891   -1.03171e-11   1.93349e-08 DIIS
   @RHF iter  12:  -155.46491446191905   -1.42109e-13   1.08209e-09 DIIS
  Energy and wave function converged.


  ==> Post-Iterations <==

    Orbital Energies [Eh]
    ---------------------

    Doubly Occupied:                                                      

       1A    -11.037125     2A    -11.036686     3A    -11.030539  
       4A    -11.030066     5A     -1.030121     6A     -0.944605  
       7A     -0.829422     8A     -0.760575     9A     -0.617286  
      10A     -0.557394    11A     -0.547793    12A     -0.540383  
      13A     -0.484622    14A     -0.475160    15A     -0.439886  
      16A     -0.429056    17A     -0.412584  

    Virtual:                                                              

      18A      0.604844    19A      0.632770    20A      0.648425  
      21A      0.686658    22A      0.700601    23A      0.739987  
      24A      0.755719    25A      0.762430    26A      0.780875  
      27A      0.782671    28A      0.802527    29A      0.805029  
      30A      0.847292  

    Final Occupation by Irrep:
              A 
    DOCC [    17 ]
    NA   [    17 ]
    NB   [    17 ]

  @RHF Final Energy:  -155.46491446191905

   => Energetics <=

    Nuclear Repulsion Energy =            130.7776350545867672
    One-Electron Energy =                -468.0784918782455861
    Two-Electron Energy =                 181.8359423617397681
    Total Energy =                       -155.4649144619190508

Computation Completed


Properties will be evaluated at   0.000000,   0.000000,   0.000000 [a0]

Properties computed using the SCF density matrix


 Multipole Moments:

 ------------------------------------------------------------------------------------
     Multipole            Electronic (a.u.)      Nuclear  (a.u.)        Total (a.u.)
 ------------------------------------------------------------------------------------

 L = 1.  Multiply by 2.5417464519 to convert [e a0] to [Debye]
 Dipole X            :          0.0152560           -0.0150836            0.0001724
 Dipole Y            :          0.0471497           -0.0465228            0.0006269
 Dipole Z            :          0.0193666           -0.0177301            0.0016364
 Magnitude           :                                                    0.0017609

 ------------------------------------------------------------------------------------

*** tstop() called on Barrys-MacBook-Pro.local at Mon Mar 30 20:33:31 2026
Module time:
	user time   =       3.22 seconds =       0.05 minutes
	system time =       0.06 seconds =       0.00 minutes
	total time  =          1 seconds =       0.02 minutes
Total time:
	user time   =     342.23 seconds =       5.70 minutes
	system time =       8.23 seconds =       0.14 minutes
	total time  =        985 seconds =      16.42 minutes

*** tstart() called on Barrys-MacBook-Pro.local
*** at Mon Mar 30 20:33:31 2026


         ------------------------------------------------------------
                                   SCF GRAD                          
                          Rob Parrish, Justin Turney,                
                       Andy Simmonett, and Alex Sokolov              
         ------------------------------------------------------------

  ==> Geometry <==

    Molecular point group: c1
    Full point group: C1

    Geometry (in Angstrom), charge = 0, multiplicity = 1:

       Center              X                  Y                   Z               Mass       
    ------------   -----------------  -----------------  -----------------  -----------------
         C            0.638620252245    -0.333297657395    -1.826035672760    12.000000000000
         C            0.638620252245    -0.333297657395    -0.281067081455    12.000000000000
         H            0.638620252245     0.679497237602    -2.192426464011     1.007825032230
         H            1.513384683659    -0.839310502089    -2.200479786196     1.007825032230
         H           -0.239250520309    -0.838231008665    -2.192261572428     1.007825032230
         C           -0.605851683088     0.387887817944     0.284521248137    12.000000000000
         H            0.644844981230    -1.355251822442     0.065704998878     1.007825032230
         H            1.527595701395     0.170946429540     0.065205422242     1.007825032230
         C           -0.670037521846     0.282875349980     1.824169900024    12.000000000000
         H           -0.560520926577     1.427715246749    -0.000542248468     1.007825032230
         H           -1.488067419618    -0.064950417906    -0.140692911177     1.007825032230
         H           -1.433204409823     0.936276925823     2.214303549495     1.007825032230
         H           -0.898071539787    -0.729449647798     2.112433895935     1.007825032230
         H            0.278579505268     0.563131645943     2.249842381125     1.007825032230

  Nuclear repulsion =  130.777635054586767

  ==> Basis Set <==

  -AO BASIS SET INFORMATION:
    Name                   = STO-3G
    Blend                  = STO-3G
    Total number of shells = 22
    Number of primitives   = 66
    Number of AO           = 30
    Number of SO           = 30
    Maximum AM             = 1
    Spherical Harmonics    = TRUE

  -Contraction Scheme:
    Atom   Type   All Primitives // Shells:
   ------ ------ --------------------------
       1     C     6s 3p // 2s 1p 
       2     C     6s 3p // 2s 1p 
       3     H     3s // 1s 
       4     H     3s // 1s 
       5     H     3s // 1s 
       6     C     6s 3p // 2s 1p 
       7     H     3s // 1s 
       8     H     3s // 1s 
       9     C     6s 3p // 2s 1p 
      10     H     3s // 1s 
      11     H     3s // 1s 
      12     H     3s // 1s 
      13     H     3s // 1s 
      14     H     3s // 1s 

  ==> DirectJKGrad: Integral-Direct SCF Gradients <==

    Gradient:                    1
    J tasked:                  Yes
    K tasked:                  Yes
    wK tasked:                  No
    Integrals threads:           4
    Schwarz Cutoff:          1E-08


  -Nuclear Gradient:
     Atom            X                  Y                   Z
    ------   -----------------  -----------------  -----------------
       1       -1.169008654363     0.643454658115     5.782921988101
       2       -3.779917479524     2.092972199366    -0.875333267538
       3       -0.159102396719    -1.747902594388     1.244757235361
       4       -1.629783947046     0.939720215183     1.116109736138
       5        1.430873771299     1.004958567287     1.249461127276
       6        3.594720278249    -2.424316489169     0.832634558741
       7       -0.370384463724     2.175850795108    -0.646069973273
       8       -2.067983155237    -0.786305221382    -0.658255524449
       9        1.358146327291    -0.339327658508    -5.764690278936
      10        0.246620040177    -2.231702897321     0.531901023550
      11        2.058972032412     0.651402527737     0.787723688427
      12        1.448226982632    -1.174950289101    -1.141815704847
      13        0.577242657746     1.773000567786    -1.083602465213
      14       -1.538621993194    -0.576854380712    -1.375742143338


  -Core Hamiltonian Gradient:
     Atom            X                  Y                   Z
    ------   -----------------  -----------------  -----------------
       1        2.451546677257    -1.354142205888   -10.953614754465
       2        6.877479699469    -3.772866139438     1.249105674476
       3        0.309912205038     5.044163560287    -2.967010034651
       4        4.493354779805    -2.594178039541    -2.722525221124
       5       -4.212565275937    -2.775771540947    -2.975749834071
       6       -6.602460315031     4.434502483448    -1.069693194215
       7        0.666062908372    -6.060567655378     1.843003956794
       8        5.573639018628     2.491137548476     1.851498861838
       9       -2.794091853196     0.785383455008    10.924977448343
      10       -0.322838078610     6.183634125965    -1.523980186050
      11       -5.527705017578    -2.160034589666    -2.295525096068
      12       -3.963037015421     3.284288560524     2.797483505474
      13       -1.502602788314    -5.077079214630     2.525441870463
      14        4.553305055518     1.571529651780     3.316587003255


  -Overlap Gradient:
     Atom            X                  Y                   Z
    ------   -----------------  -----------------  -----------------
       1       -0.000917274683     0.000625043663    -0.039813846896
       2        0.033074881914    -0.019099230752     0.020310928856
       3        0.000117679326    -0.162520379788     0.058519340725
       4       -0.140342401427     0.081211045664     0.061022680455
       5        0.140972027284     0.080914901089     0.058454253732
       6       -0.028238006300     0.019850309621    -0.024940862498
       7        0.000018639464     0.163794966554    -0.055041593952
       8       -0.141994865389    -0.081993573348    -0.054619570924
       9       -0.000841338743    -0.003441753183     0.039309760573
      10       -0.008638420223    -0.166527528807     0.045682916791
      11        0.140170793799     0.074283767583     0.068686118601
      12        0.122259099668    -0.105120644187    -0.063655072346
      13        0.036922559094     0.162492698965    -0.046032469258
      14       -0.152563373785    -0.044469623076    -0.067882583860


  -Coulomb Gradient:
     Atom            X                  Y                   Z
    ------   -----------------  -----------------  -----------------
       1       -1.285042129062     0.711940828299     5.132568860681
       2       -3.067288093868     1.662631265577    -0.349302154093
       3       -0.150818916177    -3.447114962619     1.778753215329
       4       -2.993369208765     1.729532617748     1.663444258235
       5        2.912483999637     1.846103494443     1.782842754811
       6        2.980397443852    -1.991109309204     0.210121675857
       7       -0.298276608260     4.035256085517    -1.248976581093
       8       -3.637523610126    -1.777560033490    -1.245362465116
       9        1.436845541901    -0.450496209751    -5.122248647883
      10        0.071223739222    -4.105227506716     1.035047363738
      11        3.599836002528     1.573535212528     1.571087639540
      12        2.628177029138    -2.205952805353    -1.714966540901
      13        0.959204894067     3.454998985503    -1.486702546063
      14       -3.155850084086    -1.036537662484    -2.006306833042


  -Exchange Gradient:
     Atom            X                  Y                   Z
    ------   -----------------  -----------------  -----------------
       1        0.002586345919    -0.001765322606     0.063743109001
       2       -0.052361953361     0.030628249288    -0.031252972013
       3        0.000110756684     0.306800957206    -0.110021787763
       4        0.264610985257    -0.153138590420    -0.114156218894
       5       -0.265959227791    -0.153034549045    -0.110005113605
       6        0.043189052406    -0.030805069088     0.041200405394
       7       -0.000990191863    -0.307754440435     0.102088877041
       8        0.266423401678     0.154858670329     0.101240931881
       9        0.000695152006     0.006108337782    -0.063419903113
      10        0.017236816526     0.312679357545    -0.084649863853
      11       -0.262853879219    -0.140514424808    -0.127993370022
      12       -0.230362485474     0.198247572371     0.118992964302
      13       -0.070077012005    -0.306550496433     0.086393001817
      14        0.287752239235     0.084239748312     0.127839939827


  -Total Gradient:
     Atom            X                  Y                   Z
    ------   -----------------  -----------------  -----------------
       1       -0.000835034932     0.000113001584    -0.014194643578
       2        0.010987054629    -0.005733655959     0.013528209689
       3        0.000219328153    -0.006573419301     0.004997969002
       4       -0.005529792175     0.003147248634     0.003895234809
       5        0.005805294492     0.003170872827     0.005003188143
       6       -0.012391546824     0.008121925608    -0.010677416722
       7       -0.003569716010     0.006579751366    -0.004995314483
       8       -0.007439210446     0.000137390586    -0.005497766770
       9        0.000753829260    -0.001773828652     0.013928378984
      10        0.003604097092    -0.007144449334     0.004001254176
      11        0.008419931942    -0.001327506626     0.003978980478
      12        0.005263610544    -0.003487605745    -0.003960848317
      13        0.000690310587     0.006862541191    -0.004502608253
      14       -0.005978156313    -0.002092266180    -0.005504617157


*** tstop() called on Barrys-MacBook-Pro.local at Mon Mar 30 20:33:31 2026
Module time:
	user time   =       0.49 seconds =       0.01 minutes
	system time =       0.01 seconds =       0.00 minutes
	total time  =          0 seconds =       0.00 minutes
Total time:
	user time   =     342.73 seconds =       5.71 minutes
	system time =       8.24 seconds =       0.14 minutes
	total time  =        985 seconds =      16.42 minutes

    			-----------------------------------------

    			 OPTKING 3.0: for geometry optimizations 

    			     By R.A. King, Bethel University     

    			        with contributions from          

    			    A.V. Copan, J. Cayton, A. Heide      

    			-----------------------------------------

    
	                            ===> Fragment 1 <== 

	 Z (Atomic Numbers)          Masses                          Geom                  
	       6.000000            12.000000          1.20681737 -0.62984129 -3.45070732   
	       6.000000            12.000000          1.20681737 -0.62984129 -0.53113981   
	       1.000000             1.007825          1.20681737  1.28406368 -4.14308557   
	       1.000000             1.007825          2.85988257 -1.58606698 -4.15830414   
	       1.000000             1.007825         -0.45211796 -1.58402704 -4.14277397   
	       6.000000            12.000000         -1.14489375  0.73300174  0.53766724   
	       1.000000             1.007825          1.21858041 -2.56105478  0.12416445   
	       1.000000             1.007825          2.88673751  0.32304193  0.12322039   
	       6.000000            12.000000         -1.26618741  0.53455694  3.44718152   
	       1.000000             1.007825         -1.05923104  2.69799080 -0.00102470   
	       1.000000             1.007825         -2.81203988 -0.12273850 -0.26587107   
	       1.000000             1.007825         -2.70836382  1.76930697  4.18442727   
	       1.000000             1.007825         -1.69710925 -1.37846006  3.99192152   
	       1.000000             1.007825          0.52643897  1.06416458  4.25158593   

	 - Coordinate -           - BOHR/RAD -       - ANG/DEG -
	 R(1,2)           =         2.919568           1.544969
	 R(1,3)           =         2.035294           1.077031
	 R(1,4)           =         2.036587           1.077715
	 R(1,5)           =         2.035066           1.076910
	 R(2,6)           =         2.920657           1.545545
	 R(2,7)           =         2.039399           1.079203
	 R(2,8)           =         2.039192           1.079094
	 R(6,9)           =         2.918795           1.544560
	 R(6,10)          =         2.039291           1.079146
	 R(6,11)          =         2.038956           1.078969
	 R(9,12)          =         2.036667           1.077758
	 R(9,13)          =         2.035207           1.076985
	 R(9,14)          =         2.034959           1.076854
	 B(1,2,6)         =         1.945447         111.465907
	 B(1,2,7)         =         1.897922         108.742909
	 B(1,2,8)         =         1.897467         108.716869
	 B(2,1,3)         =         1.917911         109.888203
	 B(2,1,4)         =         1.925639         110.330968
	 B(2,1,5)         =         1.917789         109.881193
	 B(2,6,9)         =         1.946062         111.501147
	 B(2,6,10)        =         1.895608         108.610314
	 B(2,6,11)        =         1.894745         108.560897
	 B(3,1,4)         =         1.900038         108.864150
	 B(3,1,5)         =         1.902041         108.978931
	 B(4,1,5)         =         1.900078         108.866438
	 B(6,2,7)         =         1.905963         109.203610
	 B(6,2,8)         =         1.904836         109.139036
	 B(6,9,12)        =         1.927346         110.428776
	 B(6,9,13)        =         1.917195         109.847184
	 B(6,9,14)        =         1.917430         109.860666
	 B(7,2,8)         =         1.912014         109.550337
	 B(9,6,10)        =         1.907708         109.303589
	 B(9,6,11)        =         1.907447         109.288638
	 B(10,6,11)       =         1.912028         109.551106
	 B(12,9,13)       =         1.899739         108.847042
	 B(12,9,14)       =         1.899598         108.838929
	 B(13,9,14)       =         1.902173         108.986502
	 D(1,2,6,9)       =         3.055868         175.088366
	 D(1,2,6,10)      =        -1.124177         -64.410583
	 D(1,2,6,11)      =         0.953617          54.638247
	 D(2,6,9,12)      =         2.960258         169.610303
	 D(2,6,9,13)      =        -1.227451         -70.327739
	 D(2,6,9,14)      =         0.864807          49.549791
	 D(3,1,2,6)       =         1.045578          59.907226
	 D(3,1,2,7)       =         3.147684         180.348985
	 D(3,1,2,8)       =        -1.054829         -60.437253
	 D(4,1,2,6)       =         3.140802         179.954724
	 D(4,1,2,7)       =        -1.040278         -59.603517
	 D(4,1,2,8)       =         1.040395          59.610245
	 D(5,1,2,6)       =        -1.047187         -59.999408
	 D(5,1,2,7)       =         1.054918          60.442350
	 D(5,1,2,8)       =         3.135591         179.656112
	 D(7,2,6,9)       =         0.958493          54.917595
	 D(7,2,6,10)      =         3.061633         175.418646
	 D(7,2,6,11)      =        -1.143758         -65.532524
	 D(8,2,6,9)       =        -1.131247         -64.815694
	 D(8,2,6,10)      =         0.971893          55.685357
	 D(8,2,6,11)      =         3.049687         174.734188
	 D(10,6,9,12)     =         0.864231          49.516813
	 D(10,6,9,13)     =         2.959708         169.578771
	 D(10,6,9,14)     =        -1.231220         -70.543699
	 D(11,6,9,12)     =        -1.228147         -70.367668
	 D(11,6,9,13)     =         0.867329          49.694290
	 D(11,6,9,14)     =         2.959587         169.571819


	        --- Internal Coordinate Step in ANG or DEG, aJ/ANG or AJ/DEG ---
	-------------------------------------------------------------------------------
	           Coordinate      Previous         Force          Change          New 
	           ----------      --------        ------          ------        ------
	               R(1,2)       1.54497       -0.00246       -0.00246       1.54251
	               R(1,3)       1.07703        0.06493        0.00724       1.08427
	               R(1,4)       1.07772        0.06030        0.00655       1.08426
	               R(1,5)       1.07691        0.06525        0.00729       1.08420
	               R(2,6)       1.54554        0.01389        0.00102       1.54656
	               R(2,7)       1.07920        0.06473        0.00715       1.08635
	               R(2,8)       1.07909        0.06450        0.00712       1.08621
	               R(6,9)       1.54456        0.00030       -0.00185       1.54271
	              R(6,10)       1.07915        0.06418        0.00707       1.08622
	              R(6,11)       1.07897        0.06505        0.00720       1.08617
	              R(9,12)       1.07776        0.05994        0.00649       1.08425
	              R(9,13)       1.07699        0.06428        0.00715       1.08413
	              R(9,14)       1.07685        0.06580        0.00737       1.08423
	             B(1,2,6)     111.46591        0.00011        0.80758     112.27349
	             B(1,2,7)     108.74291        0.00005        0.73626     109.47917
	             B(1,2,8)     108.71687        0.00005        0.69444     109.41131
	             B(2,1,3)     109.88820        0.00021        0.96521     110.85341
	             B(2,1,4)     110.33097        0.00007        0.22171     110.55268
	             B(2,1,5)     109.88119        0.00020        0.96199     110.84318
	             B(2,6,9)     111.50115        0.00010        0.78444     112.28559
	            B(2,6,10)     108.61031        0.00005        0.79730     109.40762
	            B(2,6,11)     108.56090        0.00006        0.81991     109.38080
	             B(3,1,4)     108.86415       -0.00015       -0.68140     108.18275
	             B(3,1,5)     108.97893       -0.00020       -0.86233     108.11660
	             B(4,1,5)     108.86644       -0.00015       -0.67689     108.18955
	             B(6,2,7)     109.20361       -0.00001        0.14555     109.34916
	             B(6,2,8)     109.13904       -0.00002        0.04451     109.18355
	            B(6,9,12)     110.42878        0.00008        0.23575     110.66453
	            B(6,9,13)     109.84718        0.00020        0.96597     110.81315
	            B(6,9,14)     109.86067        0.00021        0.99542     110.85609
	             B(7,2,8)     109.55034       -0.00017       -2.54834     107.00200
	            B(9,6,10)     109.30359       -0.00001        0.07378     109.37737
	            B(9,6,11)     109.28864       -0.00002       -0.02037     109.26826
	           B(10,6,11)     109.55111       -0.00017       -2.57356     106.97754
	           B(12,9,13)     108.84704       -0.00015       -0.67787     108.16918
	           B(12,9,14)     108.83893       -0.00015       -0.69562     108.14331
	           B(13,9,14)     108.98650       -0.00020       -0.89847     108.08804
	           D(1,2,6,9)     175.08837        0.00001        1.54937     176.63773
	          D(1,2,6,10)     -64.41058        0.00009        2.68704     -61.72355
	          D(1,2,6,11)      54.63825       -0.00005        0.51790      55.15615
	          D(2,6,9,12)     169.61030        0.00003        3.19469     172.80499
	          D(2,6,9,13)     -70.32774        0.00003        3.12612     -67.20162
	          D(2,6,9,14)      49.54979        0.00004        3.26613      52.81592
	           D(3,1,2,6)      59.90723       -0.00000       -0.15054      59.75669
	           D(3,1,2,7)     180.34898        0.00008        1.05252     181.40151
	           D(3,1,2,8)     -60.43725       -0.00007       -1.19343     -61.63069
	           D(4,1,2,6)     179.95472       -0.00001       -0.23471     179.72001
	           D(4,1,2,7)     -59.60352        0.00008        0.96835     -58.63517
	           D(4,1,2,8)      59.61024       -0.00008       -1.27761      58.33264
	           D(5,1,2,6)     -59.99941       -0.00001       -0.31541     -60.31482
	           D(5,1,2,7)      60.44235        0.00007        0.88765      61.33001
	           D(5,1,2,8)     179.65611       -0.00008       -1.35830     178.29781
	           D(7,2,6,9)      54.91759       -0.00010        0.00107      54.91867
	          D(7,2,6,10)     175.41865       -0.00002        1.13874     176.55739
	          D(7,2,6,11)     -65.53252       -0.00017       -1.03039     -66.56292
	           D(8,2,6,9)     -64.81569        0.00013        2.97118     -61.84451
	          D(8,2,6,10)      55.68536        0.00020        4.10885      59.79421
	          D(8,2,6,11)     174.73419        0.00006        1.93971     176.67390
	         D(10,6,9,12)      49.51681       -0.00009        1.63218      51.14900
	         D(10,6,9,13)     169.57877       -0.00009        1.56362     171.14239
	         D(10,6,9,14)     -70.54370       -0.00008        1.70362     -68.84008
	         D(11,6,9,12)     -70.36767        0.00015        4.71861     -65.64906
	         D(11,6,9,13)      49.69429        0.00015        4.65005      54.34434
	         D(11,6,9,14)     169.57182        0.00015        4.79005     174.36187
	-------------------------------------------------------------------------------

	                                 ==> Convergence Check <==                                  
    
	Measures of convergence in internal coordinates in au.
    
	Criteria marked as inactive (o), active & met (*), and active & unmet ( ).

	----------------------------------------------------------------------------------------------
	   Step    Total Energy     Delta E     Max Force     RMS Force      Max Disp      RMS Disp   
	----------------------------------------------------------------------------------------------
	  Convergence Criteria     1.00e-06 *    3.00e-04 *             o    1.20e-03 *             o
	----------------------------------------------------------------------------------------------
	     2    -155.46491446   -7.88e-02      7.99e-03      3.36e-03 o    8.36e-02      2.97e-02 o  ~
	----------------------------------------------------------------------------------------------

Next Geometry in Ang 
	Fragment 1 (Ang)

	    C   0.6443252895  -0.3288979309  -1.8341314464
	    C   0.6280474991  -0.3480760291  -0.2918258793
	    H   0.6618187239   0.6889781410  -2.2073184636
	    H   1.5210559534  -0.8429068940  -2.2119706848
	    H  -0.2350694223  -0.8200075425  -2.2353421901
	    C  -0.6047882705   0.3818921071   0.2905071313
	    H   0.6357097957  -1.3766099878   0.0577730715
	    H   1.5319892845   0.1220765081   0.0846084812
	    C  -0.6652410554   0.2916382152   1.8293877060
	    H  -0.5807387905   1.4258342157  -0.0086128365
	    H  -1.5096842911  -0.0476222694  -0.1295502792
	    H  -1.4634919026   0.9139653082   2.2181077590
	    H  -0.8459500891  -0.7285437121   2.1486302089
	    H   0.2672788829   0.6228218104   2.2724130815


    Structure for next step:
    Molecular point group: c1
    Full point group: C1

    Geometry (in Angstrom), charge = 0, multiplicity = 1:

    C       
    C             1    1.542511
    H             1    1.084272      2  110.853409
    H             1    1.084262      2  110.552682      3  119.963326
    H             1    1.084202      2  110.843178      3 -120.071502
    C             2    1.546560      1  112.273487      3   59.756685
    H             2    1.086352      1  109.479172      6  121.644822
    H             2    1.086212      1  109.411313      6 -121.387372
    C             6    1.542710      2  112.285586      1    dihedral
    H             6    1.086216      2  109.407618      9  121.638719
    H             6    1.086171      2  109.380803      9 -121.481586
    H             9    1.084250      6  110.664529     10   51.148996
    H             9    1.084132      6  110.813153     12  119.993392
    H             9    1.084227      6  110.856090     12 -119.989073

    dihedral  =  176.6377337935


Scratch directory: /Users/blink/PSI4_SCRATCH/
gradient() will perform analytic gradient computation.
   => Libint2 <=

    Primary   basis highest AM E, G, H:  7, 6, 3
    Auxiliary basis highest AM E, G, H:  7, 7, 4
    Onebody   basis highest AM E, G, H:  -, -, -
    Solid Harmonics ordering:            Gaussian

*** tstart() called on Barrys-MacBook-Pro.local
*** at Mon Mar 30 20:33:32 2026

   => Loading Basis Set <=

    Name: STO-3G
    Role: ORBITAL
    Keyword: BASIS
    atoms 1-2, 6, 9       entry C          line    61 file /opt/anaconda3/envs/compchempsi4/share/psi4/basis/sto-3g.gbs 
    atoms 3-5, 7-8, 10-14 entry H          line    19 file /opt/anaconda3/envs/compchempsi4/share/psi4/basis/sto-3g.gbs 


         ---------------------------------------------------------
                                   SCF
               by Justin Turney, Rob Parrish, Andy Simmonett
                          and Daniel G. A. Smith
                              RHF Reference
                        4 Threads,    953 MiB Core
         ---------------------------------------------------------

  ==> Geometry <==

    Molecular point group: c1
    Full point group: C1

    Geometry (in Angstrom), charge = 0, multiplicity = 1:

       Center              X                  Y                   Z               Mass       
    ------------   -----------------  -----------------  -----------------  -----------------
         C            0.629390226982    -0.341912475101    -1.835165849993    12.000000000000
         C            0.629390226982    -0.341912475101    -0.292655160151    12.000000000000
         H            0.629390226982     0.671333694092    -2.221143140079     1.007825032230
         H            1.508946055169    -0.848973902449    -2.215816103045     1.007825032230
         H           -0.247476526222    -0.849631829503    -2.220937187793     1.007825032230
         C           -0.606984314440     0.378926531474     0.293534544576    12.000000000000
         H            0.654439913789    -1.365778128592     0.069604247060     1.007825032230
         H            1.530823514126     0.144866923245     0.068344609236     1.007825032230
         C           -0.650237854027     0.307234438702     1.833970555163    12.000000000000
         H           -0.600008575384     1.419252425733    -0.018778810208     1.007825032230
         H           -1.510368351041    -0.067782568443    -0.111577659902     1.007825032230
         H           -1.452660945885     0.923772184541     2.223325271180     1.007825032230
         H           -0.813959491935    -0.711157180587     2.167761553023     1.007825032230
         H            0.282319941969     0.656283792347     2.262978711609     1.007825032230

  Running in c1 symmetry.

  Rotational constants: A =      0.77639  B =      0.11997  C =      0.11252 [cm^-1]
  Rotational constants: A =  23275.56618  B =   3596.47649  C =   3373.22853 [MHz]
  Nuclear repulsion =  130.259566774395239

  Charge       = 0
  Multiplicity = 1
  Electrons    = 34
  Nalpha       = 17
  Nbeta        = 17

  ==> Algorithm <==

  SCF Algorithm Type is DIRECT.
  DIIS enabled.
  MOM disabled.
  Fractional occupation disabled.
  Guess Type is READ.
  Energy threshold   = 1.00e-08
  Density threshold  = 1.00e-08
  Integral threshold = 1.00e-08

  ==> Primary Basis <==

  -AO BASIS SET INFORMATION:
    Name                   = STO-3G
    Blend                  = STO-3G
    Total number of shells = 22
    Number of primitives   = 66
    Number of AO           = 30
    Number of SO           = 30
    Maximum AM             = 1
    Spherical Harmonics    = TRUE

  -Contraction Scheme:
    Atom   Type   All Primitives // Shells:
   ------ ------ --------------------------
       1     C     6s 3p // 2s 1p 
       2     C     6s 3p // 2s 1p 
       3     H     3s // 1s 
       4     H     3s // 1s 
       5     H     3s // 1s 
       6     C     6s 3p // 2s 1p 
       7     H     3s // 1s 
       8     H     3s // 1s 
       9     C     6s 3p // 2s 1p 
      10     H     3s // 1s 
      11     H     3s // 1s 
      12     H     3s // 1s 
      13     H     3s // 1s 
      14     H     3s // 1s 

   => Loading Basis Set <=

    Name: (STO-3G AUX)
    Role: JKFIT
    Keyword: DF_BASIS_SCF
    atoms 1-2, 6, 9       entry C          line   198 file /opt/anaconda3/envs/compchempsi4/share/psi4/basis/def2-universal-jkfit.gbs 
    atoms 3-5, 7-8, 10-14 entry H          line    18 file /opt/anaconda3/envs/compchempsi4/share/psi4/basis/def2-universal-jkfit.gbs 

   => Loading Basis Set <=

    Name: STO-3G
    Role: ORBITAL
    Keyword: BASIS
    atoms 1-2, 6, 9       entry C          line    61 file /opt/anaconda3/envs/compchempsi4/share/psi4/basis/sto-3g.gbs 
    atoms 3-5, 7-8, 10-14 entry H          line    19 file /opt/anaconda3/envs/compchempsi4/share/psi4/basis/sto-3g.gbs 

  Reading orbitals from file /Users/blink/PSI4_SCRATCH/butane_2.default.79854.180.npy, no projection.

  Starting with a DF guess...

  ==> Integral Setup <==

  DFHelper Memory: AOs need 0.005 GiB; user supplied 0.698 GiB. 
  SCF_SUBTYPE=INCORE selected. In-core MEM_DF algorithm will be used.
  Using in-core AOs.

  ==> MemDFJK: Density-Fitted J/K Matrices <==

    J tasked:                   Yes
    K tasked:                   Yes
    wK tasked:                   No
    OpenMP threads:               4
    Memory [MiB]:               715
    Algorithm:                 Core
    Schwarz Cutoff:           1E-08
    Mask sparsity (%):       0.6667
    Fitting Condition:        1E-10

   => Auxiliary Basis Set <=

  -AO BASIS SET INFORMATION:
    Name                   = (STO-3G AUX)
    Blend                  = DEF2-UNIVERSAL-JKFIT
    Total number of shells = 160
    Number of primitives   = 212
    Number of AO           = 556
    Number of SO           = 480
    Maximum AM             = 4
    Spherical Harmonics    = TRUE

  -Contraction Scheme:
    Atom   Type   All Primitives // Shells:
   ------ ------ --------------------------
       1     C     14s 10p 6d 2f 1g // 10s 8p 5d 1f 1g 
       2     C     14s 10p 6d 2f 1g // 10s 8p 5d 1f 1g 
       3     H     4s 2p 2d // 2s 2p 2d 
       4     H     4s 2p 2d // 2s 2p 2d 
       5     H     4s 2p 2d // 2s 2p 2d 
       6     C     14s 10p 6d 2f 1g // 10s 8p 5d 1f 1g 
       7     H     4s 2p 2d // 2s 2p 2d 
       8     H     4s 2p 2d // 2s 2p 2d 
       9     C     14s 10p 6d 2f 1g // 10s 8p 5d 1f 1g 
      10     H     4s 2p 2d // 2s 2p 2d 
      11     H     4s 2p 2d // 2s 2p 2d 
      12     H     4s 2p 2d // 2s 2p 2d 
      13     H     4s 2p 2d // 2s 2p 2d 
      14     H     4s 2p 2d // 2s 2p 2d 

  Minimum eigenvalue in the overlap matrix is 2.0112866877E-01.
  Reciprocal condition number of the overlap matrix is 7.7616137629E-02.
    Using symmetric orthogonalization.

  ==> Pre-Iterations <==

  SCF Guess: Orbitals guess was supplied from a previous computation.

   -------------------------------------------------------
[...]
        Angle 2-7-11:   59.323
        Angle 2-7-12:   67.226
        Angle 2-7-13:   89.947
        Angle 2-7-14:   63.170
        Angle 3-7-4:   35.040
        Angle 3-7-5:   35.026
        Angle 3-7-6:   62.456
        Angle 3-7-8:   55.085
        Angle 3-7-9:   93.072
        Angle 3-7-10:   50.291
        Angle 3-7-11:   67.668
        Angle 3-7-12:   91.316
        Angle 3-7-13:  115.309
        Angle 3-7-14:   91.964
        Angle 4-7-5:   41.178
        Angle 4-7-6:   97.450
        Angle 4-7-8:   69.380
        Angle 4-7-9:  127.409
        Angle 4-7-10:   85.239
        Angle 4-7-11:   98.296
        Angle 4-7-12:  126.299
        Angle 4-7-13:  150.143
        Angle 4-7-14:  121.480
        Angle 5-7-6:   73.767
        Angle 5-7-8:   90.112
        Angle 5-7-9:  106.623
        Angle 5-7-10:   67.849
        Angle 5-7-11:   62.477
        Angle 5-7-12:  101.019
        Angle 5-7-13:  121.381
        Angle 5-7-14:  115.699
        Angle 6-7-8:   66.125
        Angle 6-7-9:   33.366
        Angle 6-7-10:   13.892
        Angle 6-7-11:   25.639
        Angle 6-7-12:   29.478
        Angle 6-7-13:   53.407
        Angle 6-7-14:   43.877
        Angle 8-7-9:   71.717
        Angle 8-7-10:   55.030
        Angle 8-7-11:   89.986
        Angle 8-7-12:   76.623
        Angle 8-7-13:   90.138
        Angle 8-7-14:   56.043
        Angle 9-7-10:   43.097
        Angle 9-7-11:   47.836
        Angle 9-7-12:    7.716
        Angle 9-7-13:   22.925
        Angle 9-7-14:   20.010
        Angle 10-7-11:   34.956
        Angle 10-7-12:   41.060
        Angle 10-7-13:   65.018
        Angle 10-7-14:   47.850
        Angle 11-7-12:   40.714
        Angle 11-7-13:   58.904
        Angle 11-7-14:   64.667
        Angle 12-7-13:   24.051
        Angle 12-7-14:   27.515
        Angle 13-7-14:   34.095
        Angle 1-8-2:   42.313
        Angle 1-8-3:   25.462
        Angle 1-8-4:   25.766
        Angle 1-8-5:   13.411
        Angle 1-8-6:   72.769
        Angle 1-8-7:   66.086
        Angle 1-8-9:  104.845
        Angle 1-8-10:   72.939
        Angle 1-8-11:   61.755
        Angle 1-8-12:  102.182
        Angle 1-8-13:  105.154
        Angle 1-8-14:  126.166
        Angle 2-8-3:   59.669
        Angle 2-8-4:   60.654
        Angle 2-8-5:   28.917
        Angle 2-8-6:   42.383
        Angle 2-8-7:   36.431
        Angle 2-8-9:   66.973
        Angle 2-8-10:   59.362
        Angle 2-8-11:   28.493
        Angle 2-8-12:   67.200
        Angle 2-8-13:   63.081
        Angle 2-8-14:   89.889
        Angle 3-8-4:   41.176
        Angle 3-8-5:   35.026
        Angle 3-8-6:   73.682
        Angle 3-8-7:   90.063
        Angle 3-8-9:  106.533
        Angle 3-8-10:   62.446
        Angle 3-8-11:   67.724
        Angle 3-8-12:  100.937
        Angle 3-8-13:  115.546
        Angle 3-8-14:  121.361
        Angle 4-8-5:   35.040
        Angle 4-8-6:   97.489
        Angle 4-8-7:   69.464
        Angle 4-8-9:  127.423
        Angle 4-8-10:   98.348
        Angle 4-8-11:   85.267
        Angle 4-8-12:  126.327
        Angle 4-8-13:  121.466
        Angle 4-8-14:  150.156
        Angle 5-8-6:   62.503
        Angle 5-8-7:   55.037
        Angle 5-8-9:   93.065
        Angle 5-8-10:   67.785
        Angle 5-8-11:   50.308
        Angle 5-8-12:   91.338
        Angle 5-8-13:   91.883
        Angle 5-8-14:  115.319
        Angle 6-8-7:   66.123
        Angle 6-8-9:   33.349
        Angle 6-8-10:   25.651
        Angle 6-8-11:   13.890
        Angle 6-8-12:   29.465
        Angle 6-8-13:   43.833
        Angle 6-8-14:   53.397
        Angle 7-8-9:   71.652
        Angle 7-8-10:   90.012
        Angle 7-8-11:   55.057
        Angle 7-8-12:   76.590
        Angle 7-8-13:   55.961
        Angle 7-8-14:   90.028
        Angle 9-8-10:   47.829
        Angle 9-8-11:   43.090
        Angle 9-8-12:    7.735
        Angle 9-8-13:   19.991
        Angle 9-8-14:   22.917
        Angle 10-8-11:   34.954
        Angle 10-8-12:   40.695
        Angle 10-8-13:   64.637
        Angle 10-8-14:   58.916
        Angle 11-8-12:   41.060
        Angle 11-8-13:   47.823
        Angle 11-8-14:   65.010
        Angle 12-8-13:   27.515
        Angle 12-8-14:   24.048
        Angle 13-8-14:   34.067
        Angle 1-9-2:   12.574
        Angle 1-9-3:   14.604
        Angle 1-9-4:    9.837
        Angle 1-9-5:   14.602
        Angle 1-9-6:   21.250
        Angle 1-9-7:   32.003
        Angle 1-9-8:   32.009
        Angle 1-9-10:   43.137
        Angle 1-9-11:   43.110
        Angle 1-9-12:  131.853
        Angle 1-9-13:   99.239
        Angle 1-9-14:   99.260
        Angle 2-9-3:   24.066
        Angle 2-9-4:    2.737
        Angle 2-9-5:   24.055
        Angle 2-9-6:   33.824
        Angle 2-9-7:   22.995
        Angle 2-9-8:   22.986
        Angle 2-9-10:   53.662
        Angle 2-9-11:   53.664
        Angle 2-9-12:  144.428
        Angle 2-9-13:   91.966
        Angle 2-9-14:   91.939
        Angle 3-9-4:   21.743
        Angle 3-9-5:   23.880
        Angle 3-9-6:   17.370
        Angle 3-9-7:   46.049
        Angle 3-9-8:   34.524
        Angle 3-9-10:   29.596
        Angle 3-9-11:   45.377
        Angle 3-9-12:  122.540
        Angle 3-9-13:  113.843
        Angle 3-9-14:   94.022
        Angle 4-9-5:   21.744
        Angle 4-9-6:   31.087
        Angle 4-9-7:   24.719
        Angle 4-9-8:   24.700
        Angle 4-9-10:   51.307
        Angle 4-9-11:   51.314
        Angle 4-9-12:  141.691
        Angle 4-9-13:   93.570
        Angle 4-9-14:   93.538
        Angle 5-9-6:   17.475
        Angle 5-9-7:   34.478
        Angle 5-9-8:   46.043
        Angle 5-9-10:   45.483
        Angle 5-9-11:   29.610
        Angle 5-9-12:  122.602
        Angle 5-9-13:   93.921
        Angle 5-9-14:  113.861
        Angle 6-9-7:   50.548
        Angle 6-9-8:   50.517
        Angle 6-9-10:   28.385
        Angle 6-9-11:   28.385
        Angle 6-9-12:  110.603
        Angle 6-9-13:  110.748
        Angle 6-9-14:  110.748
        Angle 7-9-8:   36.631
        Angle 7-9-10:   75.140
        Angle 7-9-11:   59.269
        Angle 7-9-12:  152.132
        Angle 7-9-13:   68.972
        Angle 7-9-14:   98.590
        Angle 8-9-10:   59.225
        Angle 8-9-11:   75.120
        Angle 8-9-12:  152.054
        Angle 8-9-13:   98.670
        Angle 8-9-14:   68.953
        Angle 10-9-11:   47.815
        Angle 10-9-12:   94.404
        Angle 10-9-13:  139.119
        Angle 10-9-14:   95.728
        Angle 11-9-12:   94.424
        Angle 11-9-13:   95.707
        Angle 11-9-14:  139.119
        Angle 12-9-13:  108.236
        Angle 12-9-14:  108.236
        Angle 13-9-14:  108.174
        Angle 1-10-2:   33.350
        Angle 1-10-3:   22.921
        Angle 1-10-4:    7.749
        Angle 1-10-5:   19.986
        Angle 1-10-6:   66.986
        Angle 1-10-7:   43.086
        Angle 1-10-8:   47.826
        Angle 1-10-9:  104.849
        Angle 1-10-11:   71.653
        Angle 1-10-12:  127.400
        Angle 1-10-13:   93.060
        Angle 1-10-14:  106.570
        Angle 2-10-3:   53.413
        Angle 2-10-4:   29.478
        Angle 2-10-5:   43.816
        Angle 2-10-6:   42.393
        Angle 2-10-7:   13.887
        Angle 2-10-8:   25.651
        Angle 2-10-9:   72.771
        Angle 2-10-11:   66.126
        Angle 2-10-12:   97.471
        Angle 2-10-13:   62.490
        Angle 2-10-14:   73.716
        Angle 3-10-4:   24.047
        Angle 3-10-5:   34.065
        Angle 3-10-6:   89.906
        Angle 3-10-7:   65.017
        Angle 3-10-8:   58.935
        Angle 3-10-9:  126.183
        Angle 3-10-11:   90.016
        Angle 3-10-12:  150.143
        Angle 3-10-13:  115.322
        Angle 3-10-14:  121.418
        Angle 4-10-5:   27.525
        Angle 4-10-6:   67.232
        Angle 4-10-7:   41.071
        Angle 4-10-8:   40.687
        Angle 4-10-9:  102.197
        Angle 4-10-11:   76.615
        Angle 4-10-12:  126.323
        Angle 4-10-13:   91.344
        Angle 4-10-14:  100.976
        Angle 5-10-6:   63.073
        Angle 5-10-7:   47.796
        Angle 5-10-8:   64.620
        Angle 5-10-9:  105.137
        Angle 5-10-11:   55.951
        Angle 5-10-12:  121.421
        Angle 5-10-13:   91.867
        Angle 5-10-14:  115.560
        Angle 6-10-7:   28.506
        Angle 6-10-8:   59.373
        Angle 6-10-9:   42.305
        Angle 6-10-11:   36.436
        Angle 6-10-12:   60.616
        Angle 6-10-13:   28.912
        Angle 6-10-14:   59.686
        Angle 7-10-8:   34.958
        Angle 7-10-9:   61.763
        Angle 7-10-11:   55.060
        Angle 7-10-12:   85.252
        Angle 7-10-13:   50.305
        Angle 7-10-14:   67.764
        Angle 8-10-9:   72.946
        Angle 8-10-11:   90.018
        Angle 8-10-12:   98.349
        Angle 8-10-13:   67.768
        Angle 8-10-14:   62.484
        Angle 9-10-11:   66.092
        Angle 9-10-12:   25.755
        Angle 9-10-13:   13.407
        Angle 9-10-14:   25.462
        Angle 11-10-12:   69.436
        Angle 11-10-13:   55.064
        Angle 11-10-14:   90.081
        Angle 12-10-13:   35.032
        Angle 12-10-14:   41.166
        Angle 13-10-14:   35.018
        Angle 1-11-2:   33.367
        Angle 1-11-3:   20.025
        Angle 1-11-4:    7.701
        Angle 1-11-5:   22.928
        Angle 1-11-6:   67.033
        Angle 1-11-7:   47.831
        Angle 1-11-8:   43.091
        Angle 1-11-9:  104.881
        Angle 1-11-10:   71.713
        Angle 1-11-12:  127.429
        Angle 1-11-13:  106.595
        Angle 1-11-14:   93.089
        Angle 2-11-3:   43.898
        Angle 2-11-4:   29.472
        Angle 2-11-5:   53.398
        Angle 2-11-6:   42.389
        Angle 2-11-7:   25.639
        Angle 2-11-8:   13.887
        Angle 2-11-9:   72.769
        Angle 2-11-10:   66.121
        Angle 2-11-12:   97.460
        Angle 2-11-13:   73.737
        Angle 2-11-14:   62.477
        Angle 3-11-4:   27.513
        Angle 3-11-5:   34.117
        Angle 3-11-6:   63.194
        Angle 3-11-7:   64.682
        Angle 3-11-8:   47.863
        Angle 3-11-9:  105.259
        Angle 3-11-10:   56.038
        Angle 3-11-12:  121.517
        Angle 3-11-13:  115.688
        Angle 3-11-14:   91.986
        Angle 4-11-5:   24.052
        Angle 4-11-6:   67.220
        Angle 4-11-7:   40.717
        Angle 4-11-8:   41.042
        Angle 4-11-9:  102.190
        Angle 4-11-10:   76.599
        Angle 4-11-12:  126.302
        Angle 4-11-13:  100.994
        Angle 4-11-14:   91.325
        Angle 5-11-6:   89.959
        Angle 5-11-7:   58.874
        Angle 5-11-8:   65.006
        Angle 5-11-9:  126.166
        Angle 5-11-10:   90.155
        Angle 5-11-12:  150.157
        Angle 5-11-13:  121.333
        Angle 5-11-14:  115.323
        Angle 6-11-7:   59.328
        Angle 6-11-8:   28.503
        Angle 6-11-9:   42.306
        Angle 6-11-10:   36.436
        Angle 6-11-12:   60.601
        Angle 6-11-13:   59.703
        Angle 6-11-14:   28.912
        Angle 7-11-8:   34.957
        Angle 7-11-9:   72.896
        Angle 7-11-10:   89.985
        Angle 7-11-12:   98.298
        Angle 7-11-13:   62.460
        Angle 7-11-14:   67.700
        Angle 8-11-9:   61.790
        Angle 8-11-10:   55.028
        Angle 8-11-12:   85.260
        Angle 8-11-13:   67.825
        Angle 8-11-14:   50.317
        Angle 9-11-10:   66.093
        Angle 9-11-12:   25.751
        Angle 9-11-13:   25.467
        Angle 9-11-14:   13.406
        Angle 10-11-12:   69.416
        Angle 10-11-13:   90.093
        Angle 10-11-14:   55.075
        Angle 12-11-13:   41.166
        Angle 12-11-14:   35.032
        Angle 13-11-14:   35.018
        Angle 1-12-2:   13.117
        Angle 1-12-3:   12.724
        Angle 1-12-4:    6.871
        Angle 1-12-5:   12.719
        Angle 1-12-6:    3.230
        Angle 1-12-7:   26.491
        Angle 1-12-8:   26.493
        Angle 1-12-9:   38.309
        Angle 1-12-10:   27.883
        Angle 1-12-11:   27.861
        Angle 1-12-13:   63.508
        Angle 1-12-14:   63.519
        Angle 2-12-3:   22.967
        Angle 2-12-4:    6.247
        Angle 2-12-5:   22.948
        Angle 2-12-6:   16.348
        Angle 2-12-7:   16.634
        Angle 2-12-8:   16.631
        Angle 2-12-9:   25.191
        Angle 2-12-10:   37.723
        Angle 2-12-11:   37.726
        Angle 2-12-13:   52.933
        Angle 2-12-14:   52.918
        Angle 3-12-4:   17.624
        Angle 3-12-5:   20.589
        Angle 3-12-6:   11.125
        Angle 3-12-7:   38.509
        Angle 3-12-8:   30.095
        Angle 3-12-9:   46.739
        Angle 3-12-10:   15.257
        Angle 3-12-11:   32.908
        Angle 3-12-13:   75.520
        Angle 3-12-14:   64.650
        Angle 4-12-5:   17.628
        Angle 4-12-6:   10.101
        Angle 4-12-7:   20.915
        Angle 4-12-8:   20.895
        Angle 4-12-9:   31.438
        Angle 4-12-10:   32.773
        Angle 4-12-11:   32.786
        Angle 4-12-13:   57.896
        Angle 4-12-14:   57.876
        Angle 5-12-6:   11.159
        Angle 5-12-7:   30.057
        Angle 5-12-8:   38.497
        Angle 5-12-9:   46.687
        Angle 5-12-10:   32.987
        Angle 5-12-11:   15.251
        Angle 5-12-13:   64.565
        Angle 5-12-14:   75.504
        Angle 6-12-7:   29.304
        Angle 6-12-8:   29.291
        Angle 6-12-9:   41.539
        Angle 6-12-10:   25.849
        Angle 6-12-11:   25.845
        Angle 6-12-13:   66.207
        Angle 6-12-14:   66.206
        Angle 7-12-8:   26.787
        Angle 7-12-9:   20.152
        Angle 7-12-10:   53.688
        Angle 7-12-11:   40.987
        Angle 7-12-13:   37.060
        Angle 7-12-14:   55.467
        Angle 8-12-9:   20.211
        Angle 8-12-10:   40.956
        Angle 8-12-11:   53.681
        Angle 8-12-13:   55.528
        Angle 8-12-14:   37.065
        Angle 9-12-10:   59.840
        Angle 9-12-11:   59.825
        Angle 9-12-13:   35.882
        Angle 9-12-14:   35.882
        Angle 10-12-11:   41.148
        Angle 10-12-13:   90.596
        Angle 10-12-14:   70.074
        Angle 11-12-13:   70.054
        Angle 11-12-14:   90.586
        Angle 13-12-14:   59.974
        Angle 1-13-2:    9.435
        Angle 1-13-3:   11.959
        Angle 1-13-4:   10.709
        Angle 1-13-5:   14.060
        Angle 1-13-6:   28.715
        Angle 1-13-7:   24.216
        Angle 1-13-8:   29.373
        Angle 1-13-9:   66.159
        Angle 1-13-10:   40.887
        Angle 1-13-11:   38.902
        Angle 1-13-12:   94.750
        Angle 1-13-14:   78.073
        Angle 2-13-3:   14.318
        Angle 2-13-4:    8.569
        Angle 2-13-5:   23.291
        Angle 2-13-6:   32.943
        Angle 2-13-7:   22.707
        Angle 2-13-8:   20.133
        Angle 2-13-9:   65.397
        Angle 2-13-10:   42.883
        Angle 2-13-11:   47.441
        Angle 2-13-12:   97.201
        Angle 2-13-14:   71.809
        Angle 3-13-4:   20.815
        Angle 3-13-5:   21.527
        Angle 3-13-6:   18.625
        Angle 3-13-7:   35.306
        Angle 3-13-8:   28.228
        Angle 3-13-9:   54.200
        Angle 3-13-10:   29.371
        Angle 3-13-11:   36.124
        Angle 3-13-12:   83.663
        Angle 3-13-14:   68.510
        Angle 4-13-5:   20.878
        Angle 4-13-6:   38.902
        Angle 4-13-7:   14.599
        Angle 4-13-8:   25.570
        Angle 4-13-9:   73.710
        Angle 4-13-10:   50.153
        Angle 4-13-11:   48.931
        Angle 4-13-12:  104.477
        Angle 4-13-14:   79.688
        Angle 5-13-6:   30.823
        Angle 5-13-7:   28.741
        Angle 5-13-8:   43.386
        Angle 5-13-9:   72.019
        Angle 5-13-10:   44.738
        Angle 5-13-11:   29.895
        Angle 5-13-12:   94.559
        Angle 5-13-14:   90.036
        Angle 6-13-7:   52.930
        Angle 6-13-8:   43.493
        Angle 6-13-9:   41.448
        Angle 6-13-10:   13.987
        Angle 6-13-11:   25.573
        Angle 6-13-12:   66.099
        Angle 6-13-14:   66.173
        Angle 7-13-8:   33.901
        Angle 7-13-9:   88.102
        Angle 7-13-10:   64.677
        Angle 7-13-11:   58.635
        Angle 7-13-12:  118.889
        Angle 7-13-14:   89.882
        Angle 8-13-9:   61.339
        Angle 8-13-10:   47.595
        Angle 8-13-11:   64.353
        Angle 8-13-12:   96.957
        Angle 8-13-14:   55.980
        Angle 9-13-10:   27.475
        Angle 9-13-11:   58.826
        Angle 9-13-12:   35.882
        Angle 9-13-14:   35.913
        Angle 10-13-11:   34.844
        Angle 10-13-12:   54.372
        Angle 10-13-14:   55.075
        Angle 11-13-12:   68.779
        Angle 11-13-14:   89.918
        Angle 12-13-14:   60.013
        Angle 1-14-2:    9.400
        Angle 1-14-3:   14.055
        Angle 1-14-4:   10.719
        Angle 1-14-5:   11.955
        Angle 1-14-6:   28.704
        Angle 1-14-7:   29.356
        Angle 1-14-8:   24.218
        Angle 1-14-9:   66.140
        Angle 1-14-10:   38.920
        Angle 1-14-11:   40.864
        Angle 1-14-12:   94.738
        Angle 1-14-13:   78.050
        Angle 2-14-3:   23.254
        Angle 2-14-4:    8.577
        Angle 2-14-5:   14.277
        Angle 2-14-6:   32.951
        Angle 2-14-7:   20.153
        Angle 2-14-8:   22.711
        Angle 2-14-9:   65.420
        Angle 2-14-10:   47.443
        Angle 2-14-11:   42.888
        Angle 2-14-12:   97.218
        Angle 2-14-13:   71.838
        Angle 3-14-4:   20.882
        Angle 3-14-5:   21.523
        Angle 3-14-6:   30.726
        Angle 3-14-7:   43.367
        Angle 3-14-8:   28.757
        Angle 3-14-9:   71.924
        Angle 3-14-10:   29.844
        Angle 3-14-11:   44.640
        Angle 3-14-12:   94.465
        Angle 3-14-13:   89.965
        Angle 4-14-5:   20.816
        Angle 4-14-6:   38.919
        Angle 4-14-7:   25.584
        Angle 4-14-8:   14.587
        Angle 4-14-9:   73.741
        Angle 4-14-10:   48.939
        Angle 4-14-11:   50.166
        Angle 4-14-12:  104.499
        Angle 4-14-13:   79.726
        Angle 5-14-6:   18.674
        Angle 5-14-7:   28.166
        Angle 5-14-8:   35.297
        Angle 5-14-9:   54.185
        Angle 5-14-10:   36.219
        Angle 5-14-11:   29.376
        Angle 5-14-12:   83.683
        Angle 5-14-13:   68.442
        Angle 6-14-7:   43.536
        Angle 6-14-8:   52.922
        Angle 6-14-9:   41.449
        Angle 6-14-10:   25.569
        Angle 6-14-11:   13.988
        Angle 6-14-12:   66.099
        Angle 6-14-13:   66.173
        Angle 7-14-8:   33.930
        Angle 7-14-9:   61.400
        Angle 7-14-10:   64.386
        Angle 7-14-11:   47.633
        Angle 7-14-12:   97.017
        Angle 7-14-13:   56.023
        Angle 8-14-9:   88.130
        Angle 8-14-10:   58.600
        Angle 8-14-11:   64.673
        Angle 8-14-12:  118.888
        Angle 8-14-13:   89.953
        Angle 9-14-10:   58.810
        Angle 9-14-11:   27.474
        Angle 9-14-12:   35.882
        Angle 9-14-13:   35.913
        Angle 10-14-11:   34.844
        Angle 10-14-12:   68.760
        Angle 10-14-13:   89.908
        Angle 11-14-12:   54.383
        Angle 11-14-13:   55.064
        Angle 12-14-13:   60.013


    Molecular point group: c1
    Full point group: C1

    Geometry (in Angstrom), charge = 0, multiplicity = 1:

    C       
    C             1    1.541011
    H             1    1.086000      2  110.731789
    H             1    1.086012      2  110.609556      3  119.998221
    H             1    1.085998      2  110.731083      3 -120.003723
    C             2    1.545073      1  112.449017      3   59.891275
    H             2    1.088522      1  109.291578      6  121.518693
    H             2    1.088524      1  109.294416      6 -121.524498
    C             6    1.541178      2  112.447884      1    dihedral
    H             6    1.088519      2  109.247955      9  121.549917
    H             6    1.088524      2  109.253977      9 -121.552884
    H             9    1.085998      6  110.603386     10   58.455725
    H             9    1.085995      6  110.748248     12  119.994649
    H             9    1.085994      6  110.747544     12 -119.994124

    dihedral  =  179.9338882895

