
    -----------------------------------------------------------------------
          Psi4: An Open-Source Ab Initio Electronic Structure Package
                               Psi4 1.9.1 release

                         Git: Rev {} zzzzzzz 


    D. G. A. Smith, L. A. Burns, A. C. Simmonett, R. M. Parrish,
    M. C. Schieber, R. Galvelis, P. Kraus, H. Kruse, R. Di Remigio,
    A. Alenaizan, A. M. James, S. Lehtola, J. P. Misiewicz, M. Scheurer,
    R. A. Shaw, J. B. Schriber, Y. Xie, Z. L. Glick, D. A. Sirianni,
    J. S. O'Brien, J. M. Waldrop, A. Kumar, E. G. Hohenstein,
    B. P. Pritchard, B. R. Brooks, H. F. Schaefer III, A. Yu. Sokolov,
    K. Patkowski, A. E. DePrince III, U. Bozkaya, R. A. King,
    F. A. Evangelista, J. M. Turney, T. D. Crawford, C. D. Sherrill,
    J. Chem. Phys. 152(18) 184108 (2020). https://doi.org/10.1063/5.0006002

                            Additional Code Authors
    E. T. Seidl, C. L. Janssen, E. F. Valeev, M. L. Leininger,
    J. F. Gonthier, R. M. Richard, H. R. McAlexander, M. Saitow, X. Wang,
    P. Verma, M. H. Lechner, A. Jiang, S. Behnle, A. G. Heide,
    M. F. Herbst, and D. L. Poole

             Previous Authors, Complete List of Code Contributors,
                       and Citations for Specific Modules
    https://github.com/psi4/psi4/blob/master/codemeta.json
    https://github.com/psi4/psi4/graphs/contributors
    http://psicode.org/psi4manual/master/introduction.html#citing-psifour

    -----------------------------------------------------------------------


    Psi4 started on: Monday, 13 May 2024 02:44PM

    Process ID: 72198
    Host:       Barrys-MacBook-Pro.local
    PSIDATADIR: /Users/blink/psi4conda/share/psi4
    Memory:     3.7 GiB
    Threads:    4
    Molecule: Setting geometry variable dihedral to 120.000000

Scratch directory: /tmp/
gradient() will perform analytic gradient computation.
   => Libint2 <=

    Primary   basis highest AM E, G, H:  5, 4, 3
    Auxiliary basis highest AM E, G, H:  6, 5, 4
    Onebody   basis highest AM E, G, H:  6, 5, 4
    Solid Harmonics ordering:            Gaussian

*** tstart() called on Barrys-MacBook-Pro.local
*** at Mon May 13 15:19:23 2024

   => Loading Basis Set <=

    Name: STO-3G
    Role: ORBITAL
    Keyword: BASIS
    atoms 1-2, 6, 9       entry C          line    61 file /Users/blink/psi4conda/share/psi4/basis/sto-3g.gbs 
    atoms 3-5, 7-8, 10-14 entry H          line    19 file /Users/blink/psi4conda/share/psi4/basis/sto-3g.gbs 


         ---------------------------------------------------------
                                   SCF
               by Justin Turney, Rob Parrish, Andy Simmonett
                          and Daniel G. A. Smith
                              RHF Reference
                        4 Threads,   3814 MiB Core
         ---------------------------------------------------------

  ==> Geometry <==

    Molecular point group: c1
    Full point group: C1

    Geometry (in Angstrom), charge = 0, multiplicity = 1:

       Center              X                  Y                   Z               Mass       
    ------------   -----------------  -----------------  -----------------  -----------------
         C            0.820698370414    -0.184329347568    -1.692086127354    12.000000000000
         C            0.820698370414    -0.184329347568    -0.150489843556    12.000000000000
         H            0.820698370414     0.830760392092    -2.078357923328     1.007825032230
         H            1.706113940660    -0.689328696311    -2.066689494147     1.007825032230
         H           -0.050092446520    -0.698280936954    -2.085347803318     1.007825032230
         C           -0.341969500815     0.617471461934     0.481618602384    12.000000000000
         H            0.779655526117    -1.212691748952     0.204698393292     1.007825032230
         H            1.759837013376     0.237681751339     0.202958227357     1.007825032230
         C           -1.270377205337    -0.222529032499     1.381050803156    12.000000000000
         H            0.081894249871     1.428670994511     1.070936182610     1.007825032230
         H           -0.932870477336     1.074066633134    -0.310675064982     1.007825032230
         H           -2.008300158124     0.415917788065     1.857672207568     1.007825032230
         H           -1.799485505462    -0.975170262618     0.806026266585     1.007825032230
         H           -0.703344299080    -0.724581835723     2.159529924595     1.007825032230

  Running in c1 symmetry.

  Rotational constants: A =      0.60944  B =      0.12341  C =      0.12314 [cm^-1]
  Rotational constants: A =  18270.48901  B =   3699.79713  C =   3691.69405 [MHz]
  Nuclear repulsion =  130.474367306290276

  Charge       = 0
  Multiplicity = 1
  Electrons    = 34
  Nalpha       = 17
  Nbeta        = 17

  ==> Algorithm <==

  SCF Algorithm Type is DIRECT.
  DIIS enabled.
  MOM disabled.
  Fractional occupation disabled.
  Guess Type is SAD.
  Energy threshold   = 1.00e-08
  Density threshold  = 1.00e-08
  Integral threshold = 1.00e-08

  ==> Primary Basis <==

  -AO BASIS SET INFORMATION:
    Name                   = STO-3G
    Blend                  = STO-3G
    Total number of shells = 22
    Number of primitives   = 66
    Number of AO           = 30
    Number of SO           = 30
    Maximum AM             = 1
    Spherical Harmonics    = TRUE

  -Contraction Scheme:
    Atom   Type   All Primitives // Shells:
   ------ ------ --------------------------
       1     C     6s 3p // 2s 1p 
       2     C     6s 3p // 2s 1p 
       3     H     3s // 1s 
       4     H     3s // 1s 
       5     H     3s // 1s 
       6     C     6s 3p // 2s 1p 
       7     H     3s // 1s 
       8     H     3s // 1s 
       9     C     6s 3p // 2s 1p 
      10     H     3s // 1s 
      11     H     3s // 1s 
      12     H     3s // 1s 
      13     H     3s // 1s 
      14     H     3s // 1s 

   => Loading Basis Set <=

    Name: (STO-3G AUX)
    Role: JKFIT
    Keyword: DF_BASIS_SCF
    atoms 1-2, 6, 9       entry C          line   198 file /Users/blink/psi4conda/share/psi4/basis/def2-universal-jkfit.gbs 
    atoms 3-5, 7-8, 10-14 entry H          line    18 file /Users/blink/psi4conda/share/psi4/basis/def2-universal-jkfit.gbs 

  Starting with a DF guess...

  ==> Integral Setup <==

  DFHelper Memory: AOs need 0.005 GiB; user supplied 2.794 GiB. 
  Using in-core AOs.

  ==> MemDFJK: Density-Fitted J/K Matrices <==

    J tasked:                   Yes
    K tasked:                   Yes
    wK tasked:                   No
    OpenMP threads:               4
    Memory [MiB]:              2861
    Algorithm:                 Core
    Schwarz Cutoff:           1E-08
    Mask sparsity (%):       0.6667
    Fitting Condition:        1E-10

   => Auxiliary Basis Set <=

  -AO BASIS SET INFORMATION:
    Name                   = (STO-3G AUX)
    Blend                  = DEF2-UNIVERSAL-JKFIT
    Total number of shells = 160
    Number of primitives   = 212
    Number of AO           = 556
    Number of SO           = 480
    Maximum AM             = 4
    Spherical Harmonics    = TRUE

  -Contraction Scheme:
    Atom   Type   All Primitives // Shells:
   ------ ------ --------------------------
       1     C     14s 10p 6d 2f 1g // 10s 8p 5d 1f 1g 
       2     C     14s 10p 6d 2f 1g // 10s 8p 5d 1f 1g 
       3     H     4s 2p 2d // 2s 2p 2d 
       4     H     4s 2p 2d // 2s 2p 2d 
       5     H     4s 2p 2d // 2s 2p 2d 
       6     C     14s 10p 6d 2f 1g // 10s 8p 5d 1f 1g 
       7     H     4s 2p 2d // 2s 2p 2d 
       8     H     4s 2p 2d // 2s 2p 2d 
       9     C     14s 10p 6d 2f 1g // 10s 8p 5d 1f 1g 
      10     H     4s 2p 2d // 2s 2p 2d 
      11     H     4s 2p 2d // 2s 2p 2d 
      12     H     4s 2p 2d // 2s 2p 2d 
      13     H     4s 2p 2d // 2s 2p 2d 
      14     H     4s 2p 2d // 2s 2p 2d 

  Minimum eigenvalue in the overlap matrix is 2.0033153636E-01.
  Reciprocal condition number of the overlap matrix is 7.7390587061E-02.
    Using symmetric orthogonalization.

  ==> Pre-Iterations <==

  SCF Guess: Superposition of Atomic Densities via on-the-fly atomic UHF (no occupation information).

   -------------------------
    Irrep   Nso     Nmo    
   -------------------------
     A         30      30 
   -------------------------
    Total      30      30
   -------------------------

  ==> Iterations <==

                           Total Energy        Delta E     RMS |[F,P]|

   @DF-RHF iter SAD:  -151.51818438357807   -1.51518e+02   0.00000e+00 
   @DF-RHF iter   1:  -155.45358456355427   -3.93540e+00   3.41720e-03 DIIS/ADIIS
   @DF-RHF iter   2:  -155.46083933294011   -7.25477e-03   6.74284e-04 DIIS/ADIIS
   @DF-RHF iter   3:  -155.46120165397272   -3.62321e-04   1.53464e-04 DIIS/ADIIS
   @DF-RHF iter   4:  -155.46121795489987   -1.63009e-05   8.27419e-06 DIIS
   @DF-RHF iter   5:  -155.46121800711626   -5.22164e-08   1.48271e-06 DIIS
   @DF-RHF iter   6:  -155.46121800848610   -1.36984e-09   1.64560e-07 DIIS
   @DF-RHF iter   7:  -155.46121800851100   -2.48974e-11   2.42490e-08 DIIS
   @DF-RHF iter   8:  -155.46121800851174   -7.38964e-13   2.79111e-09 DIIS

  DF guess converged.

  ==> DirectJK: Integral-Direct J/K Matrices <==

    J tasked:                  Yes
    K tasked:                  Yes
    wK tasked:                  No
    Integrals threads:           4
    Screening Type:           CSAM
    Screening Cutoff:        1E-08
    Incremental Fock:           No

   @RHF iter   9:  -155.46070333159156   -1.55461e+02   4.37742e-06 DIIS
   @RHF iter  10:  -155.46070334000362   -8.41206e-09   7.32746e-07 DIIS
   @RHF iter  11:  -155.46070334027257   -2.68955e-10   1.20141e-07 DIIS
   @RHF iter  12:  -155.46070334028423   -1.16529e-11   2.06320e-08 DIIS
   @RHF iter  13:  -155.46070334028465   -4.26326e-13   1.12888e-09 DIIS
  Energy and wave function converged.


  ==> Post-Iterations <==

    Orbital Energies [Eh]
    ---------------------

    Doubly Occupied:                                                      

       1A    -11.036794     2A    -11.036456     3A    -11.032026  
       4A    -11.032024     5A     -1.025948     6A     -0.942054  
       7A     -0.831890     8A     -0.754863     9A     -0.599582  
      10A     -0.570730    11A     -0.551533    12A     -0.522211  
      13A     -0.482313    14A     -0.479999    15A     -0.429722  
      16A     -0.422814    17A     -0.415666  

    Virtual:                                                              

      18A      0.596268    19A      0.612648    20A      0.638603  
      21A      0.678687    22A      0.691176    23A      0.712767  
      24A      0.745986    25A      0.754458    26A      0.778907  
      27A      0.790120    28A      0.792816    29A      0.822395  
      30A      0.851457  

    Final Occupation by Irrep:
              A 
    DOCC [    17 ]
    NA   [    17 ]
    NB   [    17 ]

  @RHF Final Energy:  -155.46070334028465

   => Energetics <=

    Nuclear Repulsion Energy =            130.4743673062902758
    One-Electron Energy =                -467.5368895673060479
    Two-Electron Energy =                 181.6018189207311195
    Total Energy =                       -155.4607033402846525

Computation Completed


Properties will be evaluated at   0.000000,   0.000000,   0.000000 [a0]

Properties computed using the SCF density matrix


 Multipole Moments:

 ------------------------------------------------------------------------------------
     Multipole            Electronic (a.u.)      Nuclear  (a.u.)        Total (a.u.)
 ------------------------------------------------------------------------------------

 L = 1.  Multiply by 2.5417464519 to convert [e a0] to [Debye]
 Dipole X            :          0.3297293           -0.3242649            0.0054644
 Dipole Y            :          0.2983308           -0.2933866            0.0049442
 Dipole Z            :          0.2280685           -0.2242887            0.0037798
 Magnitude           :                                                    0.0082820

 ------------------------------------------------------------------------------------

*** tstop() called on Barrys-MacBook-Pro.local at Mon May 13 15:19:24 2024
Module time:
	user time   =       3.02 seconds =       0.05 minutes
	system time =       0.06 seconds =       0.00 minutes
	total time  =          1 seconds =       0.02 minutes
Total time:
	user time   =     912.49 seconds =      15.21 minutes
	system time =      15.03 seconds =       0.25 minutes
	total time  =       2096 seconds =      34.93 minutes

*** tstart() called on Barrys-MacBook-Pro.local
*** at Mon May 13 15:19:24 2024


         ------------------------------------------------------------
                                   SCF GRAD                          
                          Rob Parrish, Justin Turney,                
                       Andy Simmonett, and Alex Sokolov              
         ------------------------------------------------------------

  ==> Geometry <==

    Molecular point group: c1
    Full point group: C1

    Geometry (in Angstrom), charge = 0, multiplicity = 1:

       Center              X                  Y                   Z               Mass       
    ------------   -----------------  -----------------  -----------------  -----------------
         C            0.820698370414    -0.184329347568    -1.692086127354    12.000000000000
         C            0.820698370414    -0.184329347568    -0.150489843556    12.000000000000
         H            0.820698370414     0.830760392092    -2.078357923328     1.007825032230
         H            1.706113940660    -0.689328696311    -2.066689494147     1.007825032230
         H           -0.050092446520    -0.698280936954    -2.085347803318     1.007825032230
         C           -0.341969500815     0.617471461934     0.481618602384    12.000000000000
         H            0.779655526117    -1.212691748952     0.204698393292     1.007825032230
         H            1.759837013376     0.237681751339     0.202958227357     1.007825032230
         C           -1.270377205337    -0.222529032499     1.381050803156    12.000000000000
         H            0.081894249871     1.428670994511     1.070936182610     1.007825032230
         H           -0.932870477336     1.074066633134    -0.310675064982     1.007825032230
         H           -2.008300158124     0.415917788065     1.857672207568     1.007825032230
         H           -1.799485505462    -0.975170262618     0.806026266585     1.007825032230
         H           -0.703344299080    -0.724581835723     2.159529924595     1.007825032230

  Nuclear repulsion =  130.474367306290304

  ==> Basis Set <==

  -AO BASIS SET INFORMATION:
    Name                   = STO-3G
    Blend                  = STO-3G
    Total number of shells = 22
    Number of primitives   = 66
    Number of AO           = 30
    Number of SO           = 30
    Maximum AM             = 1
    Spherical Harmonics    = TRUE

  -Contraction Scheme:
    Atom   Type   All Primitives // Shells:
   ------ ------ --------------------------
       1     C     6s 3p // 2s 1p 
       2     C     6s 3p // 2s 1p 
       3     H     3s // 1s 
       4     H     3s // 1s 
       5     H     3s // 1s 
       6     C     6s 3p // 2s 1p 
       7     H     3s // 1s 
       8     H     3s // 1s 
       9     C     6s 3p // 2s 1p 
      10     H     3s // 1s 
      11     H     3s // 1s 
      12     H     3s // 1s 
      13     H     3s // 1s 
      14     H     3s // 1s 

  ==> DirectJKGrad: Integral-Direct SCF Gradients <==

    Gradient:                    1
    J tasked:                  Yes
    K tasked:                  Yes
    wK tasked:                  No
    Integrals threads:           4
    Schwarz Cutoff:          1E-08


  -Nuclear Gradient:
     Atom            X                  Y                   Z
    ------   -----------------  -----------------  -----------------
       1       -1.298212909992     0.521930706843     5.724615534337
       2       -4.017906174554     1.777340954787    -1.158036131176
       3       -0.176109931388    -1.725571610959     1.240034288968
       4       -1.634310524726     0.909761304736     1.094917154979
       5        1.360863803501     0.982861546918     1.276437743318
       6        1.222307818444    -4.306729721569    -0.775636220813
       7       -0.386523708728     2.106543017310    -0.662341150397
       8       -2.090351216374    -0.643710901070    -0.738608897518
       9        4.026620264537     1.946666374563    -3.837418261580
      10       -0.681601517772    -1.864282745359    -1.178704076293
      11        1.310574948621    -1.270484470273     1.301492370007
      12        1.587427664641    -0.952179852762    -1.127345447087
      13        1.367011203878     1.485250140428     0.610387177514
      14       -0.589789720089     1.032605256407    -1.769794084259


  -Core Hamiltonian Gradient:
     Atom            X                  Y                   Z
    ------   -----------------  -----------------  -----------------
       1        2.700340538691    -1.089612545614   -10.668037539691
       2        7.196474027548    -2.823574347376     1.584713400872
       3        0.339308950780     5.025107013835    -3.054368038862
       4        4.539981366514    -2.543930309451    -2.713739351605
       5       -4.082295676128    -2.777516530524    -3.162277947522
       6       -2.200581371266     7.343740759296     1.870872398501
       7        0.637798206402    -5.964553450241     1.989483607108
       8        5.684626447152     2.011488490658     2.100325859221
       9       -7.632254187279    -3.372669765047     7.256706902515
      10        2.114382267562     5.044861443651     3.294115328508
      11       -3.583048450261     3.299762619899    -4.026667755740
      12       -4.225445029400     2.828514254446     2.931297730356
      13       -3.564596126147    -4.141195660853    -2.126945002187
      14        2.075309035832    -2.840421972678     4.724520408524


  -Overlap Gradient:
     Atom            X                  Y                   Z
    ------   -----------------  -----------------  -----------------
       1        0.001668463668    -0.000147645925    -0.046153004071
       2        0.041871980133    -0.029054161304     0.029434208178
       3        0.000155531996    -0.162409977646     0.063285135234
       4       -0.141467099567     0.080579292796     0.061346597073
       5        0.139018622145     0.082524894308     0.065087519721
       6       -0.010576330518     0.057369529289    -0.007787745120
       7        0.006672419431     0.163204571815    -0.057973760453
       8       -0.148979865417    -0.066891878226    -0.057613640341
       9       -0.028127283141    -0.023791414394     0.027852055728
      10       -0.068127368144    -0.129541380001    -0.092555708293
      11        0.092791282440    -0.073212229902     0.126771278773
      12        0.118717273884    -0.101162724328    -0.077082219907
      13        0.086231951654     0.121276044303     0.090714373526
      14       -0.089849578564     0.081257079213    -0.125325090048


  -Coulomb Gradient:
     Atom            X                  Y                   Z
    ------   -----------------  -----------------  -----------------
       1       -1.402132914220     0.567376027735     4.908098635950
       2       -3.149089260837     1.027230535118    -0.403577559449
       3       -0.163331976914    -3.442331603940     1.870132938073
       4       -3.030457925410     1.705432255820     1.672937839870
       5        2.844962622649     1.867346307241     1.942788809013
       6        0.973403206595    -2.995743268002    -1.101315080593
       7       -0.247442942476     4.001237868094    -1.376786489827
       8       -3.725954665923    -1.424981529468    -1.411262612138
       9        3.584120403483     1.406839688329    -3.398849130703
      10       -1.490654547491    -3.294877778321    -2.196976361231
      11        2.354911254060    -2.094451262242     2.834490509175
      12        2.742884054200    -1.965621200968    -1.871846587205
      13        2.273171449749     2.763410402683     1.597335243503
      14       -1.564388757465     1.879133557920    -3.065170154438


  -Exchange Gradient:
     Atom            X                  Y                   Z
    ------   -----------------  -----------------  -----------------
       1       -0.003000105371    -0.000002622025     0.081084144351
       2       -0.075734404225     0.053524499997    -0.054292801841
       3       -0.000098925542     0.305257780698    -0.119189188358
       4        0.266142798525    -0.151685550559    -0.115132675863
       5       -0.260942916615    -0.155344571812    -0.122556883819
       6        0.019261493177    -0.104619386142     0.015231933280
       7       -0.012534207328    -0.306620407565     0.109026142514
       8        0.279951894541     0.126426207400     0.108913444725
       9        0.049218129445     0.041818991212    -0.049116304895
      10        0.128984888105     0.243569702828     0.173941095273
      11       -0.174266649797     0.137607509170    -0.238233452279
      12       -0.223247326470     0.190496249415     0.144802641532
      13       -0.162440987565    -0.227722327549    -0.170290356497
      14        0.168706319121    -0.152706075069     0.235812261876


  -Total Gradient:
     Atom            X                  Y                   Z
    ------   -----------------  -----------------  -----------------
       1       -0.001336927222    -0.000456078986    -0.000392229124
       2       -0.004383831935     0.005467481222    -0.001758883416
       3       -0.000076351067     0.000051601987    -0.000104864944
       4       -0.000111384663     0.000156993341     0.000329564455
       5        0.001606455552    -0.000128353868    -0.000520759289
       6        0.003814816432    -0.005982087127     0.001365285255
       7       -0.002030232698    -0.000188400587     0.001408348945
       8       -0.000707406022     0.002330389295     0.001754153949
       9       -0.000422672956    -0.001136125337    -0.000824738935
      10        0.002983722260    -0.000270757202    -0.000179722035
      11        0.000962385062    -0.000777833348    -0.002147050064
      12        0.000336636854     0.000046725804    -0.000173882311
      13       -0.000622508432     0.001018599013     0.001201435858
      14       -0.000012701165    -0.000132154207     0.000043341656


*** tstop() called on Barrys-MacBook-Pro.local at Mon May 13 15:19:24 2024
Module time:
	user time   =       0.54 seconds =       0.01 minutes
	system time =       0.01 seconds =       0.00 minutes
	total time  =          0 seconds =       0.00 minutes
Total time:
	user time   =     913.03 seconds =      15.22 minutes
	system time =      15.04 seconds =       0.25 minutes
	total time  =       2096 seconds =      34.93 minutes

    			-----------------------------------------

    			 OPTKING 3.0: for geometry optimizations 

    			     By R.A. King, Bethel University     

    			        with contributions from          

    			    A.V. Copan, J. Cayton, A. Heide      

    			-----------------------------------------

    
	                            ===> Fragment 1 <== 

	 Z (Atomic Numbers)          Masses                          Geom                  
	       6.000000            12.000000          1.55089515 -0.34833198 -3.19757936   
	       6.000000            12.000000          1.55089515 -0.34833198 -0.28438459   
	       1.000000             1.007825          1.55089515  1.56990962 -3.92752727   
	       1.000000             1.007825          3.22408809 -1.30264245 -3.90547713   
	       1.000000             1.007825         -0.09466100 -1.31955973 -3.94073622   
	       6.000000            12.000000         -0.64622870  1.16685195  0.91012726   
	       1.000000             1.007825          1.47333542 -2.29165528  0.38682390   
	       1.000000             1.007825          3.32560998  0.44915342  0.38353546   
	       6.000000            12.000000         -2.40066499 -0.42051893  2.60980778   
	       1.000000             1.007825          0.15475770  2.69979690  2.02377608   
	       1.000000             1.007825         -1.76286971  2.02969178 -0.58709079   
	       1.000000             1.007825         -3.79513728  0.78597071  3.51049170   
	       1.000000             1.007825         -3.40053477 -1.84280472  1.52316889   
	       1.000000             1.007825         -1.32912810 -1.36926122  4.08092012   

	 - Coordinate -           - BOHR/RAD -       - ANG/DEG -
	 R(1,2)           =         2.913195           1.541596
	 R(1,3)           =         2.052431           1.086100
	 R(1,4)           =         2.052170           1.085962
	 R(1,5)           =         2.050225           1.084932
	 R(2,6)           =         2.924037           1.547334
	 R(2,7)           =         2.057436           1.088748
	 R(2,8)           =         2.057113           1.088577
	 R(6,9)           =         2.913195           1.541597
	 R(6,10)          =         2.057113           1.088577
	 R(6,11)          =         2.057436           1.088748
	 R(9,12)          =         2.052170           1.085962
	 R(9,13)          =         2.050225           1.084932
	 R(9,14)          =         2.052431           1.086100
	 B(1,2,6)         =         1.991622         114.111557
	 B(1,2,7)         =         1.903115         109.040442
	 B(1,2,8)         =         1.901478         108.946680
	 B(2,1,3)         =         1.934406         110.833307
	 B(2,1,4)         =         1.922983         110.178793
	 B(2,1,5)         =         1.941719         111.252324
	 B(2,6,9)         =         1.991622         114.111536
	 B(2,6,10)        =         1.890963         108.344209
	 B(2,6,11)        =         1.904817         109.137960
	 B(3,1,4)         =         1.888030         108.176146
	 B(3,1,5)         =         1.890022         108.290257
	 B(4,1,5)         =         1.885016         108.003437
	 B(6,2,7)         =         1.904817         109.137985
	 B(6,2,8)         =         1.890963         108.344198
	 B(6,9,12)        =         1.922982         110.178762
	 B(6,9,13)        =         1.941720         111.252353
	 B(6,9,14)        =         1.934407         110.833336
	 B(7,2,8)         =         1.867917         107.023747
	 B(9,6,10)        =         1.901479         108.946710
	 B(9,6,11)        =         1.903115         109.040465
	 B(10,6,11)       =         1.867916         107.023728
	 B(12,9,13)       =         1.885015         108.003431
	 B(12,9,14)       =         1.888030         108.176140
	 B(13,9,14)       =         1.890021         108.290241
	*D(1,2,6,9)       =         2.094395         120.000000
	 D(1,2,6,10)      =        -2.067427        -118.454856
	 D(1,2,6,11)      =        -0.039305          -2.252027
	 D(2,6,9,12)      =         3.056201         175.107402
	 D(2,6,9,13)      =        -1.136919         -65.140640
	 D(2,6,9,14)      =         0.967070          55.409012
	 D(3,1,2,6)       =         0.967070          55.409017
	 D(3,1,2,7)       =         3.101703         177.714488
	 D(3,1,2,8)       =        -1.148475         -65.802768
	 D(4,1,2,6)       =         3.056201         175.107417
	 D(4,1,2,7)       =        -1.092351         -62.587112
	 D(4,1,2,8)       =         0.940656          53.895631
	 D(5,1,2,6)       =        -1.136918         -65.140617
	 D(5,1,2,7)       =         0.997715          57.164854
	 D(5,1,2,8)       =         3.030722         173.647598
	 D(7,2,6,9)       =        -0.039305          -2.252029
	 D(7,2,6,10)      =         2.082058         119.293115
	 D(7,2,6,11)      =        -2.173006        -124.504056
	 D(8,2,6,9)       =        -2.067428        -118.454888
	 D(8,2,6,10)      =         0.053935           3.090256
	 D(8,2,6,11)      =         2.082057         119.293085
	 D(10,6,9,12)     =         0.940656          53.895595
	 D(10,6,9,13)     =         3.030722         173.647552
	 D(10,6,9,14)     =        -1.148475         -65.802795
	 D(11,6,9,12)     =        -1.092352         -62.587155
	 D(11,6,9,13)     =         0.997714          57.164802
	 D(11,6,9,14)     =         3.101702         177.714455


	        --- Internal Coordinate Step in ANG or DEG, aJ/ANG or AJ/DEG ---
	-------------------------------------------------------------------------------
	           Coordinate      Previous         Force          Change          New 
	           ----------      --------        ------          ------        ------
	               R(1,2)       1.54160       -0.00567       -0.00128       1.54032
	               R(1,3)       1.08610       -0.00070       -0.00013       1.08597
	               R(1,4)       1.08596        0.00229        0.00041       1.08638
	               R(1,5)       1.08493        0.00857        0.00155       1.08648
	               R(2,6)       1.54733        0.07687        0.01763       1.56496
	               R(2,7)       1.08875       -0.00588       -0.00108       1.08767
	               R(2,8)       1.08858       -0.00711       -0.00130       1.08728
	               R(6,9)       1.54160       -0.00567       -0.00128       1.54032
	              R(6,10)       1.08858       -0.00711       -0.00130       1.08728
	              R(6,11)       1.08875       -0.00588       -0.00108       1.08767
	              R(9,12)       1.08596        0.00229        0.00041       1.08638
	              R(9,13)       1.08493        0.00857        0.00155       1.08648
	              R(9,14)       1.08610       -0.00070       -0.00013       1.08597
	             B(1,2,6)     114.11156       -0.00032       -1.00367     113.10788
	             B(1,2,7)     109.04044        0.00002       -0.59827     108.44217
	             B(1,2,8)     108.94668       -0.00002       -0.42155     108.52513
	             B(2,1,3)     110.83331       -0.00000       -0.08063     110.75267
	             B(2,1,4)     110.17879        0.00006        0.40272     110.58152
	             B(2,1,5)     111.25232       -0.00011       -0.59907     110.65325
	             B(2,6,9)     114.11154       -0.00032       -1.00364     113.10789
	            B(2,6,10)     108.34421        0.00025        1.74735     110.09155
	            B(2,6,11)     109.13796        0.00017        0.87253     110.01049
	             B(3,1,4)     108.17615       -0.00001        0.09039     108.26654
	             B(3,1,5)     108.29026        0.00003       -0.12915     108.16110
	             B(4,1,5)     108.00344        0.00005        0.33143     108.33486
	             B(6,2,7)     109.13798        0.00017        0.87249     110.01047
	             B(6,2,8)     108.34420        0.00025        1.74736     110.09156
	            B(6,9,12)     110.17876        0.00006        0.40278     110.58154
	            B(6,9,13)     111.25235       -0.00011       -0.59912     110.65323
	            B(6,9,14)     110.83334       -0.00000       -0.08068     110.75266
	             B(7,2,8)     107.02375       -0.00010       -0.59857     106.42518
	            B(9,6,10)     108.94671       -0.00002       -0.42159     108.52512
	            B(9,6,11)     109.04046        0.00002       -0.59831     108.44216
	           B(10,6,11)     107.02373       -0.00010       -0.59854     106.42519
	           B(12,9,13)     108.00343        0.00005        0.33144     108.33487
	           B(12,9,14)     108.17614       -0.00001        0.09041     108.26655
	           B(13,9,14)     108.29024        0.00003       -0.12913     108.16111
	          *D(1,2,6,9)     120.00000        0.00000        0.00051     120.00051
	          D(1,2,6,10)    -118.45486       -0.00005        0.04942    -118.40544
	          D(1,2,6,11)      -2.25203        0.00006        0.82400      -1.42802
	          D(2,6,9,12)     175.10740        0.00004        4.10395     179.21135
	          D(2,6,9,13)     -65.14064        0.00006        4.39420     -60.74644
	          D(2,6,9,14)      55.40901        0.00002        3.78085      59.18986
	           D(3,1,2,6)      55.40902        0.00002        3.78089      59.18990
	           D(3,1,2,7)     177.71449        0.00004        3.78376     181.49825
	           D(3,1,2,8)     -65.80277       -0.00008        2.52139     -63.28138
	           D(4,1,2,6)     175.10742        0.00004        4.10397     179.21139
	           D(4,1,2,7)     -62.58711        0.00006        4.10685     -58.48026
	           D(4,1,2,8)      53.89563       -0.00005        2.84447      56.74011
	           D(5,1,2,6)     -65.14062        0.00006        4.39420     -60.74642
	           D(5,1,2,7)      57.16485        0.00009        4.39708      61.56193
	           D(5,1,2,8)     173.64760       -0.00003        3.13470     176.78230
	           D(7,2,6,9)      -2.25203        0.00006        0.82401      -1.42802
	          D(7,2,6,10)     119.29311        0.00001        0.87292     120.16604
	          D(7,2,6,11)    -124.50406        0.00012        1.64751    -122.85655
	           D(8,2,6,9)    -118.45489       -0.00005        0.04947    -118.40542
	          D(8,2,6,10)       3.09026       -0.00010        0.09838       3.18864
	          D(8,2,6,11)     119.29309        0.00001        0.87297     120.16605
	         D(10,6,9,12)      53.89559       -0.00005        2.84449      56.74008
	         D(10,6,9,13)     173.64755       -0.00003        3.13474     176.78229
	         D(10,6,9,14)     -65.80280       -0.00008        2.52139     -63.28141
	         D(11,6,9,12)     -62.58716        0.00006        4.10688     -58.48028
	         D(11,6,9,13)      57.16480        0.00009        4.39712      61.56192
	         D(11,6,9,14)     177.71445        0.00004        3.78377     181.49823
	-------------------------------------------------------------------------------

	                                 ==> Convergence Check <==                                  
    
	Measures of convergence in internal coordinates in au.
    
	Criteria marked as inactive (o), active & met (*), and active & unmet ( ).

	----------------------------------------------------------------------------------------------
	   Step    Total Energy     Delta E     Max Force     RMS Force      Max Disp      RMS Disp   
	----------------------------------------------------------------------------------------------
	  Convergence Criteria     1.00e-06 *    3.00e-04 *             o    1.20e-03 *             o
	----------------------------------------------------------------------------------------------
	     1    -155.46070334   -1.55e+02      9.33e-03      1.71e-03 o    7.67e-02      3.60e-02 o  ~
	----------------------------------------------------------------------------------------------

Next Geometry in Ang 
	Fragment 1 (Ang)

	    C   0.8168308430  -0.1801699998  -1.6863732855
	    C   0.8321995752  -0.1880402792  -0.1461514399
	    H   0.8834124357   0.8348544110  -2.0666727761
	    H   1.6561588218  -0.7468591299  -2.0795724049
	    H  -0.1010234012  -0.6232827510  -2.0627171533
	    C  -0.3437674909   0.6299613374   0.4839917927
	    H   0.7910178582  -1.2206343738   0.1930866363
	    H   1.7863872306   0.2087812712   0.1918271119
	    C  -1.2631599467  -0.2236572360   1.3776548153
	    H   0.0489901391   1.4518219633   1.0776730495
	    H  -0.9475904334   1.0789716195  -0.3013849566
	    H  -2.0549200227   0.3860699270   1.8037562885
	    H  -1.7201882598  -1.0245033255   0.8030152032
	    H  -0.7011911002  -0.6699856213   2.1927114700


    Structure for next step:
    Molecular point group: c1
    Full point group: C1

    Geometry (in Angstrom), charge = 0, multiplicity = 1:

    C       
    C             1    1.540319
    H             1    1.085972      2  110.752673
    H             1    1.086376      2  110.581518      3  120.021483
    H             1    1.086481      2  110.653250      3 -119.936322
    C             2    1.564962      1  113.107883      3   59.189903
    H             2    1.087671      1  108.442170      6  122.308350
    H             2    1.087277      1  108.525134      6 -122.471281
    C             6    1.540318      2  113.107893      1    dihedral
    H             6    1.087277      2  110.091555      9  121.594054
    H             6    1.087671      2  110.010486      9 -121.428528
    H             9    1.086376      6  110.581538     10   56.740085
    H             9    1.086481      6  110.653232     12  120.042204
    H             9    1.085972      6  110.752656     12 -120.021491

    dihedral  =  120.0005061729


Scratch directory: /tmp/
gradient() will perform analytic gradient computation.
   => Libint2 <=

    Primary   basis highest AM E, G, H:  5, 4, 3
    Auxiliary basis highest AM E, G, H:  6, 5, 4
    Onebody   basis highest AM E, G, H:  6, 5, 4
    Solid Harmonics ordering:            Gaussian

*** tstart() called on Barrys-MacBook-Pro.local
*** at Mon May 13 15:19:25 2024

   => Loading Basis Set <=

    Name: STO-3G
    Role: ORBITAL
    Keyword: BASIS
    atoms 1-2, 6, 9       entry C          line    61 file /Users/blink/psi4conda/share/psi4/basis/sto-3g.gbs 
    atoms 3-5, 7-8, 10-14 entry H          line    19 file /Users/blink/psi4conda/share/psi4/basis/sto-3g.gbs 


         ---------------------------------------------------------
                                   SCF
               by Justin Turney, Rob Parrish, Andy Simmonett
                          and Daniel G. A. Smith
                              RHF Reference
                        4 Threads,   3814 MiB Core
         ---------------------------------------------------------

  ==> Geometry <==

    Molecular point group: c1
    Full point group: C1

    Geometry (in Angstrom), charge = 0, multiplicity = 1:

       Center              X                  Y                   Z               Mass       
    ------------   -----------------  -----------------  -----------------  -----------------
         C            0.842399944487    -0.132929270860    -1.678918598032    12.000000000000
         C            0.842399944487    -0.132929270860    -0.138599970965    12.000000000000
         H            0.842399944487     0.882583511435    -2.063716148246     1.007825032230
         H            1.722988384818    -0.641777578261    -2.060823000378     1.007825032230
         H           -0.038613335541    -0.640277821876    -2.062132740288     1.007825032230
         C           -0.393857961618     0.604323653393     0.475590711335    12.000000000000
         H            0.869378187350    -1.164388808555     0.205481948013     1.007825032230
         H            1.763260658686     0.330590494075     0.206850312890     1.007825032230
         C           -1.261049911744    -0.307050126785     1.364385799682    12.000000000000
         H           -0.065137376737     1.454049189863     1.068954148691     1.007825032230
         H           -1.019216695242     1.006916429637    -0.318055638342     1.007825032230
         H           -2.097508886647     0.248175749915     1.779445200116     1.007825032230
         H           -1.655535776000    -1.140184895259     0.789314167351     1.007825032230
         H           -0.677934214030    -0.709739114074     2.187278882012     1.007825032230

  Running in c1 symmetry.

  Rotational constants: A =      0.60049  B =      0.12373  C =      0.12370 [cm^-1]
  Rotational constants: A =  18002.24417  B =   3709.31149  C =   3708.52041 [MHz]
  Nuclear repulsion =  130.354595728807425

  Charge       = 0
  Multiplicity = 1
  Electrons    = 34
  Nalpha       = 17
  Nbeta        = 17

  ==> Algorithm <==

  SCF Algorithm Type is DIRECT.
  DIIS enabled.
  MOM disabled.
  Fractional occupation disabled.
  Guess Type is READ.
  Energy threshold   = 1.00e-08
  Density threshold  = 1.00e-08
  Integral threshold = 1.00e-08

  ==> Primary Basis <==

  -AO BASIS SET INFORMATION:
    Name                   = STO-3G
    Blend                  = STO-3G
    Total number of shells = 22
    Number of primitives   = 66
    Number of AO           = 30
    Number of SO           = 30
    Maximum AM             = 1
    Spherical Harmonics    = TRUE

  -Contraction Scheme:
    Atom   Type   All Primitives // Shells:
   ------ ------ --------------------------
       1     C     6s 3p // 2s 1p 
       2     C     6s 3p // 2s 1p 
       3     H     3s // 1s 
       4     H     3s // 1s 
       5     H     3s // 1s 
       6     C     6s 3p // 2s 1p 
       7     H     3s // 1s 
       8     H     3s // 1s 
       9     C     6s 3p // 2s 1p 
      10     H     3s // 1s 
      11     H     3s // 1s 
      12     H     3s // 1s 
      13     H     3s // 1s 
      14     H     3s // 1s 

   => Loading Basis Set <=

    Name: (STO-3G AUX)
    Role: JKFIT
    Keyword: DF_BASIS_SCF
    atoms 1-2, 6, 9       entry C          line   198 file /Users/blink/psi4conda/share/psi4/basis/def2-universal-jkfit.gbs 
    atoms 3-5, 7-8, 10-14 entry H          line    18 file /Users/blink/psi4conda/share/psi4/basis/def2-universal-jkfit.gbs 

   => Loading Basis Set <=

    Name: STO-3G
    Role: ORBITAL
    Keyword: BASIS
    atoms 1-2, 6, 9       entry C          line    61 file /Users/blink/psi4conda/share/psi4/basis/sto-3g.gbs 
    atoms 3-5, 7-8, 10-14 entry H          line    19 file /Users/blink/psi4conda/share/psi4/basis/sto-3g.gbs 

  Reading orbitals from file /tmp/butane_eclipsed_1.default.72198.180.npy, no projection.

  Starting with a DF guess...

  ==> Integral Setup <==

  DFHelper Memory: AOs need 0.005 GiB; user supplied 2.794 GiB. 
  Using in-core AOs.

  ==> MemDFJK: Density-Fitted J/K Matrices <==

    J tasked:                   Yes
    K tasked:                   Yes
    wK tasked:                   No
    OpenMP threads:               4
    Memory [MiB]:              2861
    Algorithm:                 Core
    Schwarz Cutoff:           1E-08
    Mask sparsity (%):       0.6667
    Fitting Condition:        1E-10

   => Auxiliary Basis Set <=

  -AO BASIS SET INFORMATION:
    Name                   = (STO-3G AUX)
    Blend                  = DEF2-UNIVERSAL-JKFIT
    Total number of shells = 160
    Number of primitives   = 212
    Number of AO           = 556
    Number of SO           = 480
    Maximum AM             = 4
    Spherical Harmonics    = TRUE

  -Contraction Scheme:
    Atom   Type   All Primitives // Shells:
   ------ ------ --------------------------
       1     C     14s 10p 6d 2f 1g // 10s 8p 5d 1f 1g 
       2     C     14s 10p 6d 2f 1g // 10s 8p 5d 1f 1g 
       3     H     4s 2p 2d // 2s 2p 2d 
       4     H     4s 2p 2d // 2s 2p 2d 
       5     H     4s 2p 2d // 2s 2p 2d 
       6     C     14s 10p 6d 2f 1g // 10s 8p 5d 1f 1g 
       7     H     4s 2p 2d // 2s 2p 2d 
       8     H     4s 2p 2d // 2s 2p 2d 
       9     C     14s 10p 6d 2f 1g // 10s 8p 5d 1f 1g 
      10     H     4s 2p 2d // 2s 2p 2d 
      11     H     4s 2p 2d // 2s 2p 2d 
      12     H     4s 2p 2d // 2s 2p 2d 
      13     H     4s 2p 2d // 2s 2p 2d 
      14     H     4s 2p 2d // 2s 2p 2d 

  Minimum eigenvalue in the overlap matrix is 2.0158057110E-01.
  Reciprocal condition number of the overlap matrix is 7.8054905067E-02.
    Using symmetric orthogonalization.

  ==> Pre-Iterations <==

  SCF Guess: Orbitals guess was supplied from a previous computation.

   -------------------------------------------------------
    Irrep   Nso     Nmo     Nalpha   Nbeta   Ndocc  Nsocc
   -------------------------------------------------------
     A         30      30      17      17      17       0
   -------------------------------------------------------
    Total      30      30      17      17      17       0
   -------------------------------------------------------

  ==> Iterations <==

                           Total Energy        Delta E     RMS |[F,P]|

   @DF-RHF iter   0:  -155.44081707105283   -1.55441e+02   3.35400e-03 
   @DF-RHF iter   1:  -155.46095156802710   -2.01345e-02   8.13339e-04 DIIS/ADIIS
   @DF-RHF iter   2:  -155.46156589581045   -6.14328e-04   2.49285e-04 DIIS/ADIIS
   @DF-RHF iter   3:  -155.46163031841752   -6.44226e-05   2.53000e-05 DIIS
   @DF-RHF iter   4:  -155.46163079179888   -4.73381e-07   2.15005e-06 DIIS
   @DF-RHF iter   5:  -155.46163079644236   -4.64348e-09   3.84454e-07 DIIS
   @DF-RHF iter   6:  -155.46163079657100   -1.28637e-10   5.65225e-08 DIIS
   @DF-RHF iter   7:  -155.46163079657373   -2.72848e-12   7.48870e-09 DIIS

  DF guess converged.

  ==> DirectJK: Integral-Direct J/K Matrices <==

    J tasked:                  Yes
    K tasked:                  Yes
    wK tasked:                  No
    Integrals threads:           4
    Screening Type:           CSAM
    Screening Cutoff:        1E-08
    Incremental Fock:           No

   @RHF iter   8:  -155.46111649538940   -1.55461e+02   4.36042e-06 DIIS
   @RHF iter   9:  -155.46111650371839   -8.32898e-09   7.28501e-07 DIIS
   @RHF iter  10:  -155.46111650398453   -2.66141e-10   1.19571e-07 DIIS
   @RHF iter  11:  -155.46111650399610   -1.15676e-11   2.05259e-08 DIIS
   @RHF iter  12:  -155.46111650399652   -4.26326e-13   1.06538e-09 DIIS
  Energy and wave function converged.


  ==> Post-Iterations <==

    Orbital Energies [Eh]
    ---------------------

    Doubly Occupied:                                                      

       1A    -11.037653     2A    -11.037286     3A    -11.031666  
       4A    -11.031664     5A     -1.023978     6A     -0.942795  
       7A     -0.828216     8A     -0.757623     9A     -0.599007  
      10A     -0.569074    11A     -0.552525    12A     -0.522583  
      13A     -0.478913    14A     -0.478723    15A     -0.431610  
      16A     -0.425004    17A     -0.414290  

    Virtual:                                                              

      18A      0.597407    19A      0.613837    20A      0.633696  
      21A      0.683134    22A      0.690819    23A      0.712673  
      24A      0.743930    25A      0.749015    26A      0.773031  
      27A      0.790067    28A      0.793398    29A      0.821325  
      30A      0.846935  

    Final Occupation by Irrep:
              A 
    DOCC [    17 ]
    NA   [    17 ]
    NB   [    17 ]

  @RHF Final Energy:  -155.46111650399652

   => Energetics <=

    Nuclear Repulsion Energy =            130.3545957288074248
    One-Electron Energy =                -467.3062064065675258
    Two-Electron Energy =                 181.4904941737635511
    Total Energy =                       -155.4611165039965215

Computation Completed


Properties will be evaluated at   0.000000,   0.000000,   0.000000 [a0]

Properties computed using the SCF density matrix


 Multipole Moments:

 ------------------------------------------------------------------------------------
     Multipole            Electronic (a.u.)      Nuclear  (a.u.)        Total (a.u.)
 ------------------------------------------------------------------------------------

 L = 1.  Multiply by 2.5417464519 to convert [e a0] to [Debye]
 Dipole X            :          0.3385477           -0.3336633            0.0048844
 Dipole Y            :          0.3557963           -0.3506631            0.0051332
 Dipole Z            :          0.2543516           -0.2506820            0.0036696
 Magnitude           :                                                    0.0079795

 ------------------------------------------------------------------------------------

*** tstop() called on Barrys-MacBook-Pro.local at Mon May 13 15:19:25 2024
Module time:
	user time   =       2.79 seconds =       0.05 minutes
	system time =       0.04 seconds =       0.00 minutes
	total time  =          0 seconds =       0.00 minutes
Total time:
	user time   =     917.09 seconds =      15.28 minutes
	system time =      15.09 seconds =       0.25 minutes
	total time  =       2097 seconds =      34.95 minutes

*** tstart() called on Barrys-MacBook-Pro.local
*** at Mon May 13 15:19:25 2024


         ------------------------------------------------------------
                                   SCF GRAD                          
                          Rob Parrish, Justin Turney,                
                       Andy Simmonett, and Alex Sokolov              
         ------------------------------------------------------------

  ==> Geometry <==

    Molecular point group: c1
    Full point group: C1

    Geometry (in Angstrom), charge = 0, multiplicity = 1:

       Center              X                  Y                   Z               Mass       
    ------------   -----------------  -----------------  -----------------  -----------------
         C            0.842399944487    -0.132929270860    -1.678918598032    12.000000000000
         C            0.842399944487    -0.132929270860    -0.138599970965    12.000000000000
         H            0.842399944487     0.882583511435    -2.063716148246     1.007825032230
         H            1.722988384818    -0.641777578261    -2.060823000378     1.007825032230
         H           -0.038613335541    -0.640277821876    -2.062132740288     1.007825032230
         C           -0.393857961618     0.604323653393     0.475590711335    12.000000000000
         H            0.869378187350    -1.164388808555     0.205481948013     1.007825032230
         H            1.763260658686     0.330590494075     0.206850312890     1.007825032230
         C           -1.261049911744    -0.307050126785     1.364385799682    12.000000000000
         H           -0.065137376737     1.454049189863     1.068954148691     1.007825032230
         H           -1.019216695242     1.006916429637    -0.318055638342     1.007825032230
         H           -2.097508886647     0.248175749915     1.779445200116     1.007825032230
         H           -1.655535776000    -1.140184895259     0.789314167351     1.007825032230
         H           -0.677934214030    -0.709739114074     2.187278882012     1.007825032230

  Nuclear repulsion =  130.354595728807425

  ==> Basis Set <==

  -AO BASIS SET INFORMATION:
    Name                   = STO-3G
    Blend                  = STO-3G
    Total number of shells = 22
    Number of primitives   = 66
    Number of AO           = 30
    Number of SO           = 30
    Maximum AM             = 1
    Spherical Harmonics    = TRUE

  -Contraction Scheme:
    Atom   Type   All Primitives // Shells:
   ------ ------ --------------------------
       1     C     6s 3p // 2s 1p 
       2     C     6s 3p // 2s 1p 
       3     H     3s // 1s 
       4     H     3s // 1s 
       5     H     3s // 1s 
       6     C     6s 3p // 2s 1p 
       7     H     3s // 1s 
       8     H     3s // 1s 
       9     C     6s 3p // 2s 1p 
      10     H     3s // 1s 
      11     H     3s // 1s 
      12     H     3s // 1s 
      13     H     3s // 1s 
      14     H     3s // 1s 

  ==> DirectJKGrad: Integral-Direct SCF Gradients <==

    Gradient:                    1
    J tasked:                  Yes
    K tasked:                  Yes
    wK tasked:                  No
    Integrals threads:           4
    Schwarz Cutoff:          1E-08


  -Nuclear Gradient:
     Atom            X                  Y                   Z
    ------   -----------------  -----------------  -----------------
       1       -1.372767393592     0.442766650660     5.729928786054
       2       -4.079711129156     1.431633041660    -1.327374554407
       3       -0.180370213443    -1.737882551016     1.229503472960
       4       -1.627836606585     0.907659935062     1.103943537702
       5        1.362352864751     0.963918120802     1.274904292904
       6        1.402701508606    -4.245031333435    -0.683866602200
       7       -0.521111023194     2.077623916253    -0.659911752170
       8       -2.052231941738    -0.750468806392    -0.740475014887
       9        3.918691499305     2.232866493630    -3.817172403567
      10       -0.493532819854    -1.924998396042    -1.172164582456
      11        1.395291722836    -1.158905275751     1.316685596186
      12        1.744333417286    -0.785227102833    -1.016419601343
      13        1.135425713792     1.661117395483     0.601682934062
      14       -0.631235599012     0.884927911918    -1.839264108835


  -Core Hamiltonian Gradient:
     Atom            X                  Y                   Z
    ------   -----------------  -----------------  -----------------
       1        2.925261634523    -0.940829365532   -10.658427234524
       2        7.344249161066    -2.261413813899     2.010105356920
       3        0.344801435464     5.045156609706    -3.025505832921
       4        4.526487427204    -2.548373265163    -2.750075815248
       5       -4.134040971056    -2.724242781056    -3.121373764846
       6       -2.490037140601     7.362935444732     1.636869127345
       7        1.094491203332    -5.927318476402     1.910545138232
       8        5.626265934841     2.217127328948     2.026559211045
       9       -7.474777059919    -3.840469265982     7.240370966933
      10        1.476841040212     5.247870185184     3.310024387025
      11       -3.866684553163     3.013888027959    -3.993298363647
      12       -4.689742119742     2.376799857355     2.627424451209
      13       -2.866602309671    -4.633069820335    -2.138228381531
      14        2.183486317510    -2.388060665515     4.925010754007


  -Overlap Gradient:
     Atom            X                  Y                   Z
    ------   -----------------  -----------------  -----------------
       1       -0.001788751000     0.000982302900    -0.045732194736
       2        0.045098125649    -0.027988320038     0.022728576662
       3        0.000297674781    -0.162372706724     0.062811636611
       4       -0.141002380676     0.081367107812     0.062761244868
       5        0.141012472859     0.080885384445     0.062489151791
       6       -0.020549249917     0.053788018787    -0.004284823390
       7       -0.006167671960     0.164440175281    -0.054688750119
       8       -0.148452055475    -0.071583750056    -0.054568556665
       9       -0.024524986136    -0.028636849026     0.025962515594
      10       -0.049888537124    -0.136861929818    -0.094445282633
      11        0.100259247280    -0.065554845452     0.125379889879
      12        0.134754907304    -0.087932859222    -0.067455073110
      13        0.063537861669     0.134086397153     0.091190081970
      14       -0.092586657253     0.065381873959    -0.132148416721


  -Coulomb Gradient:
     Atom            X                  Y                   Z
    ------   -----------------  -----------------  -----------------
       1       -1.553619779611     0.499097405321     4.895219789968
       2       -3.224924100544     0.804911674259    -0.667565034003
       3       -0.164529778266    -3.450365614021     1.851728013498
       4       -3.022328028047     1.712214720255     1.701054116483
       5        2.895395343383     1.831613060052     1.901795313065
       6        1.066359592745    -3.073447547268    -0.954165401586
       7       -0.578474622463     3.993906163963    -1.299479241909
       8       -3.703506670811    -1.530739111656    -1.335452251719
       9        3.538446953811     1.586847791138    -3.404017682431
      10       -1.029116913327    -3.443002870603    -2.220181104514
      11        2.558741790957    -1.912749114702     2.787256609065
      12        3.063637983902    -1.668799523680    -1.670019728575
      13        1.787460995614     3.089825883954     1.616447774327
      14       -1.633542767342     1.560687082988    -3.202621171668


  -Exchange Gradient:
     Atom            X                  Y                   Z
    ------   -----------------  -----------------  -----------------
       1        0.004184732393    -0.002445381793     0.080140872913
       2       -0.081957229348     0.051225824646    -0.039024398064
       3       -0.000348410022     0.305446981015    -0.118349213867
       4        0.264938856061    -0.152826907286    -0.117766706385
       5       -0.265142754244    -0.152333227413    -0.117642666288
       6        0.038913638118    -0.096462667079     0.006685340505
       7        0.012561758591    -0.308660483291     0.102445012288
       8        0.278377980897     0.134159477810     0.102663206623
       9        0.042144020952     0.051134922089    -0.045333705231
      10        0.093681564043     0.256855809402     0.176866176916
      11       -0.188554302951     0.123701525549    -0.234668460822
      12       -0.253063546877     0.165307177721     0.126688815113
      13       -0.119744748646    -0.252163556323    -0.171524397219
      14        0.174008441032    -0.122939495049     0.248820123517


  -Total Gradient:
     Atom            X                  Y                   Z
    ------   -----------------  -----------------  -----------------
       1        0.001270442713    -0.000428388443     0.001130019674
       2        0.002754827667    -0.001631593372    -0.001130052892
       3       -0.000149291486    -0.000017281040     0.000188076281
       4        0.000259267955     0.000041590679    -0.000083622580
       5       -0.000423044307    -0.000159443171     0.000172326625
       6       -0.002611651049     0.001781915738     0.001237640673
       7        0.001299644307    -0.000008704196    -0.001089593678
       8        0.000453247714    -0.001504861345    -0.001273405603
       9       -0.000019571987     0.001743091849    -0.000190308701
      10       -0.002015666050    -0.000137201877     0.000099594337
      11       -0.000946095041     0.000380317603     0.001355270661
      12       -0.000079358126     0.000147549341     0.000218863295
      13        0.000077512757    -0.000203700067    -0.000431988391
      14        0.000129734934    -0.000003291699    -0.000202819701


*** tstop() called on Barrys-MacBook-Pro.local at Mon May 13 15:19:26 2024
Module time:
	user time   =       0.47 seconds =       0.01 minutes
	system time =       0.00 seconds =       0.00 minutes
	total time  =          1 seconds =       0.02 minutes
Total time:
	user time   =     917.57 seconds =      15.29 minutes
	system time =      15.09 seconds =       0.25 minutes
	total time  =       2098 seconds =      34.97 minutes

    			-----------------------------------------

    			 OPTKING 3.0: for geometry optimizations 

    			     By R.A. King, Bethel University     

    			        with contributions from          

    			    A.V. Copan, J. Cayton, A. Heide      

    			-----------------------------------------

    
	                            ===> Fragment 1 <== 

	 Z (Atomic Numbers)          Masses                          Geom                  
	       6.000000            12.000000          1.59190518 -0.25119992 -3.17269634   
	       6.000000            12.000000          1.59190518 -0.25119992 -0.26191599   
	       1.000000             1.007825          1.59190518  1.66784112 -3.89985832   
	       1.000000             1.007825          3.25597616 -1.21278386 -3.89439106   
	       1.000000             1.007825         -0.07296863 -1.20994973 -3.89686611   
	       6.000000            12.000000         -0.74428368  1.14200620  0.89873619   
	       1.000000             1.007825          1.64288667 -2.20037595  0.38830461   
	       1.000000             1.007825          3.33207973  0.62472549  0.39089044   
	       6.000000            12.000000         -2.38303896 -0.58024065  2.57831549   
	       1.000000             1.007825         -0.12309180  2.74775474  2.02003058   
	       1.000000             1.007825         -1.92604042  1.90279628 -0.60103805   
	       1.000000             1.007825         -3.96371734  0.46898420  3.36266408   
	       1.000000             1.007825         -3.12850921 -2.15463718  1.49158760   
	       1.000000             1.007825         -1.28111000 -1.34121255  4.13335805   

	 - Coordinate -           - BOHR/RAD -       - ANG/DEG -
	 R(1,2)           =         2.910780           1.540319
	 R(1,3)           =         2.052190           1.085972
	 R(1,4)           =         2.052954           1.086376
	 R(1,5)           =         2.053151           1.086481
	 R(2,6)           =         2.957349           1.564962
	 R(2,7)           =         2.055401           1.087671
	 R(2,8)           =         2.054655           1.087277
	 R(6,9)           =         2.910780           1.540318
	 R(6,10)          =         2.054655           1.087277
	 R(6,11)          =         2.055401           1.087671
	 R(9,12)          =         2.052954           1.086376
	 R(9,13)          =         2.053151           1.086481
	 R(9,14)          =         2.052190           1.085972
	 B(1,2,6)         =         1.974105         113.107883
	 B(1,2,7)         =         1.892673         108.442170
	 B(1,2,8)         =         1.894121         108.525134
	 B(2,1,3)         =         1.932999         110.752673
	 B(2,1,4)         =         1.930012         110.581518
	 B(2,1,5)         =         1.931264         110.653250
	 B(2,6,9)         =         1.974105         113.107893
	 B(2,6,10)        =         1.921460         110.091555
	 B(2,6,11)        =         1.920045         110.010486
	 B(3,1,4)         =         1.889608         108.266541
	 B(3,1,5)         =         1.887767         108.161103
	 B(4,1,5)         =         1.890800         108.334862
	 B(6,2,7)         =         1.920045         110.010470
	 B(6,2,8)         =         1.921460         110.091561
	 B(6,9,12)        =         1.930012         110.581538
	 B(6,9,13)        =         1.931263         110.653232
	 B(6,9,14)        =         1.932998         110.752656
	 B(7,2,8)         =         1.857470         106.425178
	 B(9,6,10)        =         1.894121         108.525116
	 B(9,6,11)        =         1.892673         108.442159
	 B(10,6,11)       =         1.857470         106.425187
	 B(12,9,13)       =         1.890800         108.334868
	 B(12,9,14)       =         1.889608         108.266546
	 B(13,9,14)       =         1.887767         108.161108
	*D(1,2,6,9)       =         2.094404         120.000506
	 D(1,2,6,10)      =        -2.066565        -118.405440
	 D(1,2,6,11)      =        -0.024924          -1.428022
	 D(2,6,9,12)      =         3.127828         179.211351
	 D(2,6,9,13)      =        -1.060225         -60.746445
	 D(2,6,9,14)      =         1.033058          59.189860
	 D(3,1,2,6)       =         1.033059          59.189903
	 D(3,1,2,7)       =         3.167742         181.498253
	 D(3,1,2,8)       =        -1.104468         -63.281377
	 D(4,1,2,6)       =         3.127829         179.211386
	 D(4,1,2,7)       =        -1.020673         -58.480264
	 D(4,1,2,8)       =         0.990302          56.740106
	 D(5,1,2,6)       =        -1.060225         -60.746419
	 D(5,1,2,7)       =         1.074458          61.561931
	 D(5,1,2,8)       =         3.085433         176.782301
	 D(7,2,6,9)       =        -0.024924          -1.428017
	 D(7,2,6,10)      =         2.097293         120.166037
	 D(7,2,6,11)      =        -2.144251        -122.856545
	 D(8,2,6,9)       =        -2.066564        -118.405418
	 D(8,2,6,10)      =         0.055652           3.188636
	 D(8,2,6,11)      =         2.097293         120.166053
	 D(10,6,9,12)     =         0.990301          56.740085
	 D(10,6,9,13)     =         3.085433         176.782289
	 D(10,6,9,14)     =        -1.104469         -63.281406
	 D(11,6,9,12)     =        -1.020673         -58.480280
	 D(11,6,9,13)     =         1.074458          61.561924
	 D(11,6,9,14)     =         3.167742         181.498229


	        --- Internal Coordinate Step in ANG or DEG, aJ/ANG or AJ/DEG ---
	-------------------------------------------------------------------------------
	           Coordinate      Previous         Force          Change          New 
	           ----------      --------        ------          ------        ------
	               R(1,2)       1.54032        0.01159        0.00183       1.54215
	               R(1,3)       1.08597        0.00068        0.00008       1.08605
	               R(1,4)       1.08638       -0.00181       -0.00021       1.08617
	               R(1,5)       1.08648       -0.00294       -0.00027       1.08621
	               R(2,6)       1.56496       -0.05671       -0.00824       1.55673
	               R(2,7)       1.08767        0.00251        0.00026       1.08793
	               R(2,8)       1.08728        0.00546        0.00064       1.08791
	               R(6,9)       1.54032        0.01159        0.00183       1.54215
	              R(6,10)       1.08728        0.00546        0.00064       1.08791
	              R(6,11)       1.08767        0.00251        0.00026       1.08793
	              R(9,12)       1.08638       -0.00181       -0.00021       1.08617
	              R(9,13)       1.08648       -0.00294       -0.00027       1.08621
	              R(9,14)       1.08597        0.00068        0.00008       1.08605
	             B(1,2,6)     113.10788       -0.00002       -0.21653     112.89135
	             B(1,2,7)     108.44217        0.00007        0.37478     108.81695
	             B(1,2,8)     108.52513        0.00008        0.41612     108.94126
	             B(2,1,3)     110.75267        0.00002        0.06612     110.81879
	             B(2,1,4)     110.58152       -0.00001       -0.04067     110.54085
	             B(2,1,5)     110.65325        0.00003        0.07793     110.73118
	             B(2,6,9)     113.10789       -0.00002       -0.21654     112.89135
	            B(2,6,10)     110.09155       -0.00008       -0.41375     109.67781
	            B(2,6,11)     110.01049       -0.00007       -0.43282     109.57767
	             B(3,1,4)     108.26654       -0.00001       -0.03172     108.23482
	             B(3,1,5)     108.16110       -0.00002       -0.00970     108.15141
	             B(4,1,5)     108.33486       -0.00002       -0.06649     108.26837
	             B(6,2,7)     110.01047       -0.00007       -0.43280     109.57767
	             B(6,2,8)     110.09156       -0.00008       -0.41375     109.67781
	            B(6,9,12)     110.58154       -0.00001       -0.04069     110.54085
	            B(6,9,13)     110.65323        0.00003        0.07795     110.73118
	            B(6,9,14)     110.75266        0.00002        0.06613     110.81879
	             B(7,2,8)     106.42518        0.00003        0.31901     106.74419
	            B(9,6,10)     108.52512        0.00008        0.41614     108.94126
	            B(9,6,11)     108.44216        0.00007        0.37479     108.81695
	           B(10,6,11)     106.42519        0.00003        0.31900     106.74419
	           B(12,9,13)     108.33487       -0.00002       -0.06650     108.26837
	           B(12,9,14)     108.26655       -0.00001       -0.03172     108.23482
	           B(13,9,14)     108.16111       -0.00002       -0.00970     108.15141
	          *D(1,2,6,9)     120.00051        0.00000        0.00007     120.00058
	          D(1,2,6,10)    -118.40544        0.00003        0.08771    -118.31773
	          D(1,2,6,11)      -1.42802       -0.00003       -0.02244      -1.45046
	          D(2,6,9,12)     179.21135        0.00000        1.61171     180.82307
	          D(2,6,9,13)     -60.74644       -0.00001        1.55268     -59.19377
	          D(2,6,9,14)      59.18986        0.00001        1.63496      60.82482
	           D(3,1,2,6)      59.18990        0.00001        1.63492      60.82482
	           D(3,1,2,7)     181.49825       -0.00005        1.20705     182.70530
	           D(3,1,2,8)     -63.28138        0.00007        2.00971     -61.27167
	           D(4,1,2,6)     179.21139        0.00000        1.61168     180.82307
	           D(4,1,2,7)     -58.48026       -0.00005        1.18381     -57.29646
	           D(4,1,2,8)      56.74011        0.00006        1.98647      58.72658
	           D(5,1,2,6)     -60.74642       -0.00001        1.55265     -59.19377
	           D(5,1,2,7)      61.56193       -0.00006        1.12478      62.68671
	           D(5,1,2,8)     176.78230        0.00005        1.92744     178.70974
	           D(7,2,6,9)      -1.42802       -0.00003       -0.02245      -1.45046
	          D(7,2,6,10)     120.16604        0.00000        0.06520     120.23123
	          D(7,2,6,11)    -122.85655       -0.00005       -0.04496    -122.90150
	           D(8,2,6,9)    -118.40542        0.00003        0.08769    -118.31773
	          D(8,2,6,10)       3.18864        0.00005        0.17533       3.36397
	          D(8,2,6,11)     120.16605        0.00000        0.06518     120.23123
	         D(10,6,9,12)      56.74008        0.00006        1.98649      58.72658
	         D(10,6,9,13)     176.78229        0.00005        1.92745     178.70974
	         D(10,6,9,14)     -63.28141        0.00007        2.00974     -61.27166
	         D(11,6,9,12)     -58.48028       -0.00005        1.18382     -57.29646
	         D(11,6,9,13)      61.56192       -0.00006        1.12479      62.68671
	         D(11,6,9,14)     181.49823       -0.00005        1.20707     182.70530
	-------------------------------------------------------------------------------

	                                 ==> Convergence Check <==                                  
    
	Measures of convergence in internal coordinates in au.
    
	Criteria marked as inactive (o), active & met (*), and active & unmet ( ).

	----------------------------------------------------------------------------------------------
	   Step    Total Energy     Delta E     Max Force     RMS Force      Max Disp      RMS Disp   
	----------------------------------------------------------------------------------------------
	  Convergence Criteria     1.00e-06 *    3.00e-04 *             o    1.20e-03 *             o
	----------------------------------------------------------------------------------------------
	     2    -155.46111650   -4.13e-04      6.88e-03      1.04e-03 o    3.51e-02      1.54e-02 o  ~
	----------------------------------------------------------------------------------------------

Next Geometry in Ang 
	Fragment 1 (Ang)

	    C   0.8358358983  -0.1288487968  -1.6780065920
	    C   0.8397910761  -0.1308390091  -0.1358659270
	    H   0.8643045197   0.8863652758  -2.0627691007
	    H   1.7005860921  -0.6622292001  -2.0620228677
	    H  -0.0591361516  -0.6108397634  -2.0608348934
	    C  -0.3900185260   0.6035266367   0.4737811447
	    H   0.8594248755  -1.1609018936   0.2136619603
	    H   1.7570094333   0.3369127167   0.2155217259
	    C  -1.2556777342  -0.3123832649   1.3625783977
	    H  -0.0537093331   1.4531674647   1.0641717494
	    H  -1.0093702305   1.0033170295  -0.3263162756
	    H  -2.1086760210   0.2333477699   1.7554239379
	    H  -1.6264776137  -1.1606530963   0.7944291937
	    H  -0.6799133781  -0.6925797274   2.2013026206


    Structure for next step:
    Molecular point group: c1
    Full point group: C1

    Geometry (in Angstrom), charge = 0, multiplicity = 1:

    C       
    C             1    1.542147
    H             1    1.086054      2  110.818789
    H             1    1.086166      2  110.540848      3  119.998243
    H             1    1.086208      2  110.731178      3 -120.018591
    C             2    1.556725      1  112.891352      3   60.824823
    H             2    1.087927      1  108.816950      6  121.880478
    H             2    1.087913      1  108.941256      6 -122.096489
    C             6    1.542147      2  112.891353      1    dihedral
    H             6    1.087913      2  109.677805      9  121.681697
    H             6    1.087927      2  109.577666      9 -121.451039
    H             9    1.086166      6  110.540851     10   58.726577
    H             9    1.086208      6  110.731179     12  119.983167
    H             9    1.086054      6  110.818788     12 -119.998242

    dihedral  =  120.0005750864


Scratch directory: /tmp/
gradient() will perform analytic gradient computation.
   => Libint2 <=

    Primary   basis highest AM E, G, H:  5, 4, 3
    Auxiliary basis highest AM E, G, H:  6, 5, 4
    Onebody   basis highest AM E, G, H:  6, 5, 4
    Solid Harmonics ordering:            Gaussian

*** tstart() called on Barrys-MacBook-Pro.local
*** at Mon May 13 15:19:26 2024

   => Loading Basis Set <=

    Name: STO-3G
    Role: ORBITAL
    Keyword: BASIS
    atoms 1-2, 6, 9       entry C          line    61 file /Users/blink/psi4conda/share/psi4/basis/sto-3g.gbs 
    atoms 3-5, 7-8, 10-14 entry H          line    19 file /Users/blink/psi4conda/share/psi4/basis/sto-3g.gbs 


         ---------------------------------------------------------
                                   SCF
               by Justin Turney, Rob Parrish, Andy Simmonett
                          and Daniel G. A. Smith
                              RHF Reference
                        4 Threads,   3814 MiB Core
         ---------------------------------------------------------

  ==> Geometry <==

    Molecular point group: c1
    Full point group: C1

    Geometry (in Angstrom), charge = 0, multiplicity = 1:

       Center              X                  Y                   Z               Mass       
    ------------   -----------------  -----------------  -----------------  -----------------
         C            0.843577366208    -0.106586858574    -1.675695216998    12.000000000000
         C            0.843577366208    -0.106586858574    -0.133548195794    12.000000000000
         H            0.843577366208     0.908557337332    -2.061693306721     1.007825032230
         H            1.724435899055    -0.615114744514    -2.056803714197     1.007825032230
         H           -0.036033659294    -0.614811148535    -2.060195262987     1.007825032230
         C           -0.408604283184     0.592522044654     0.471994510897    12.000000000000
         H            0.892181870635    -1.135220542121     0.217357950120     1.007825032230
         H            1.745920201080     0.388011547720     0.219586763150     1.007825032230
         C           -1.249631976686    -0.347041720375     1.359749949973    12.000000000000
         H           -0.098626575559     1.452281490897     1.062148720656     1.007825032230
         H           -1.037212262569     0.973198143383    -0.330204024476     1.007825032230
         H           -2.119124920662     0.174183349325     1.749701876549     1.007825032230
         H           -1.594183364355    -1.206404601852     0.791746820846     1.007825032230
         H           -0.665261852882    -0.709350068028     2.200438052431     1.007825032230

  Running in c1 symmetry.

  Rotational constants: A =      0.59950  B =      0.12437  C =      0.12432 [cm^-1]
  Rotational constants: A =  17972.57308  B =   3728.40640  C =   3726.99803 [MHz]
  Nuclear repulsion =  130.513309615906479

  Charge       = 0
  Multiplicity = 1
  Electrons    = 34
  Nalpha       = 17
  Nbeta        = 17

  ==> Algorithm <==

  SCF Algorithm Type is DIRECT.
  DIIS enabled.
  MOM disabled.
  Fractional occupation disabled.
  Guess Type is READ.
  Energy threshold   = 1.00e-08
  Density threshold  = 1.00e-08
  Integral threshold = 1.00e-08

  ==> Primary Basis <==

  -AO BASIS SET INFORMATION:
    Name                   = STO-3G
    Blend                  = STO-3G
    Total number of shells = 22
    Number of primitives   = 66
    Number of AO           = 30
    Number of SO           = 30
    Maximum AM             = 1
    Spherical Harmonics    = TRUE

  -Contraction Scheme:
    Atom   Type   All Primitives // Shells:
   ------ ------ --------------------------
       1     C     6s 3p // 2s 1p 
       2     C     6s 3p // 2s 1p 
       3     H     3s // 1s 
       4     H     3s // 1s 
       5     H     3s // 1s 
       6     C     6s 3p // 2s 1p 
       7     H     3s // 1s 
       8     H     3s // 1s 
       9     C     6s 3p // 2s 1p 
      10     H     3s // 1s 
      11     H     3s // 1s 
      12     H     3s // 1s 
      13     H     3s // 1s 
      14     H     3s // 1s 

   => Loading Basis Set <=

    Name: (STO-3G AUX)
    Role: JKFIT
    Keyword: DF_BASIS_SCF
    atoms 1-2, 6, 9       entry C          line   198 file /Users/blink/psi4conda/share/psi4/basis/def2-universal-jkfit.gbs 
    atoms 3-5, 7-8, 10-14 entry H          line    18 file /Users/blink/psi4conda/share/psi4/basis/def2-universal-jkfit.gbs 

   => Loading Basis Set <=

    Name: STO-3G
    Role: ORBITAL
    Keyword: BASIS
    atoms 1-2, 6, 9       entry C          line    61 file /Users/blink/psi4conda/share/psi4/basis/sto-3g.gbs 
    atoms 3-5, 7-8, 10-14 entry H          line    19 file /Users/blink/psi4conda/share/psi4/basis/sto-3g.gbs 

  Reading orbitals from file /tmp/butane_eclipsed_1.default.72198.180.npy, no projection.

  Starting with a DF guess...

  ==> Integral Setup <==

  DFHelper Memory: AOs need 0.005 GiB; user supplied 2.794 GiB. 
  Using in-core AOs.

  ==> MemDFJK: Density-Fitted J/K Matrices <==

    J tasked:                   Yes
    K tasked:                   Yes
    wK tasked:                   No
    OpenMP threads:               4
    Memory [MiB]:              2861
    Algorithm:                 Core
    Schwarz Cutoff:           1E-08
    Mask sparsity (%):       0.6667
    Fitting Condition:        1E-10

   => Auxiliary Basis Set <=

  -AO BASIS SET INFORMATION:
    Name                   = (STO-3G AUX)
    Blend                  = DEF2-UNIVERSAL-JKFIT
    Total number of shells = 160
    Number of primitives   = 212
    Number of AO           = 556
    Number of SO           = 480
    Maximum AM             = 4
    Spherical Harmonics    = TRUE

  -Contraction Scheme:
    Atom   Type   All Primitives // Shells:
   ------ ------ --------------------------
       1     C     14s 10p 6d 2f 1g // 10s 8p 5d 1f 1g 
       2     C     14s 10p 6d 2f 1g // 10s 8p 5d 1f 1g 
       3     H     4s 2p 2d // 2s 2p 2d 
       4     H     4s 2p 2d // 2s 2p 2d 
       5     H     4s 2p 2d // 2s 2p 2d 
       6     C     14s 10p 6d 2f 1g // 10s 8p 5d 1f 1g 
       7     H     4s 2p 2d // 2s 2p 2d 
       8     H     4s 2p 2d // 2s 2p 2d 
       9     C     14s 10p 6d 2f 1g // 10s 8p 5d 1f 1g 
      10     H     4s 2p 2d // 2s 2p 2d 
      11     H     4s 2p 2d // 2s 2p 2d 
      12     H     4s 2p 2d // 2s 2p 2d 
      13     H     4s 2p 2d // 2s 2p 2d 
      14     H     4s 2p 2d // 2s 2p 2d 

  Minimum eigenvalue in the overlap matrix is 2.0116186203E-01.
  Reciprocal condition number of the overlap matrix is 7.7766454705E-02.
    Using symmetric orthogonalization.

  ==> Pre-Iterations <==

  SCF Guess: Orbitals guess was supplied from a previous computation.

   -------------------------------------------------------
    Irrep   Nso     Nmo     Nalpha   Nbeta   Ndocc  Nsocc
   -------------------------------------------------------
     A         30      30      17      17      17       0
   -------------------------------------------------------
    Total      30      30      17      17      17       0
   -------------------------------------------------------

  ==> Iterations <==

                           Total Energy        Delta E     RMS |[F,P]|

   @DF-RHF iter   0:  -155.46023212885905   -1.55460e+02   1.40736e-03 
   @DF-RHF iter   1:  -155.46164521024721   -1.41308e-03   3.05792e-04 DIIS/ADIIS
   @DF-RHF iter   2:  -155.46173351072531   -8.83005e-05   9.50842e-05 DIIS
   @DF-RHF iter   3:  -155.46174302435170   -9.51363e-06   3.99521e-06 DIIS
   @DF-RHF iter   4:  -155.46174303485347   -1.05018e-08   8.54659e-07 DIIS
   @DF-RHF iter   5:  -155.46174303561870   -7.65226e-10   9.61462e-08 DIIS
   @DF-RHF iter   6:  -155.46174303562799   -9.29390e-12   1.71502e-08 DIIS
   @DF-RHF iter   7:  -155.46174303562822   -2.27374e-13   3.54550e-09 DIIS

  DF guess converged.

  ==> DirectJK: Integral-Direct J/K Matrices <==

[...]
      11        1.410058839903    -1.137285833040     1.321706065675
      12        1.774990176439    -0.746986912861    -0.993197262318
      13        1.086486838657     1.697802088716     0.593826325292
      14       -0.638193807635     0.850206845795    -1.854781497391


  -Core Hamiltonian Gradient:
     Atom            X                  Y                   Z
    ------   -----------------  -----------------  -----------------
       1        2.930198737596    -0.882632817350   -10.669902145965
       2        7.478616244722    -2.190911405306     1.920563805598
       3        0.347345726128     5.050214800473    -3.025656743986
       4        4.525339795085    -2.545625515300    -2.753846607566
       5       -4.125879372400    -2.724845026532    -3.136215395336
       6       -2.737136758281     7.348636051883     1.709969174145
       7        1.152204905109    -5.902408293340     1.960539913074
       8        5.552643760300     2.370982868180     2.074996378442
       9       -7.407293877556    -3.987497833987     7.241807284008
      10        1.466912086715     5.264805577981     3.299850563142
      11       -3.872613634097     2.943180303483    -4.043546661642
      12       -4.779798383931     2.268828559720     2.559008567602
      13       -2.728115932439    -4.730848624362    -2.111862463255
      14        2.197576703049    -2.281878645541     4.974294331739


  -Overlap Gradient:
     Atom            X                  Y                   Z
    ------   -----------------  -----------------  -----------------
       1       -0.001112585391     0.000526391440    -0.045843676795
       2        0.043967811825    -0.025981910533     0.024798723933
       3        0.000233210896    -0.162425111708     0.062924457199
       4       -0.140827041945     0.081357366707     0.062919381267
       5        0.140820275587     0.081010588950     0.062773739278
       6       -0.018914636693     0.053234443833    -0.005615621906
       7       -0.007273673445     0.163860672686    -0.056457576928
       8       -0.145617151286    -0.075984408565    -0.056301145368
       9       -0.024625911924    -0.028524407726     0.026135824641
      10       -0.050356466522    -0.137193336573    -0.093755100645
      11        0.099520834865    -0.063515316519     0.127090881112
      12        0.137829938533    -0.084617578939    -0.065214247491
      13        0.059216483434     0.136586990911     0.090393637787
      14       -0.092861087933     0.061665616036    -0.133849276085


  -Coulomb Gradient:
     Atom            X                  Y                   Z
    ------   -----------------  -----------------  -----------------
       1       -1.544501487508     0.461457164886     4.906168503455
       2       -3.283606434640     0.775537427985    -0.613147218994
       3       -0.167040776702    -3.452576474107     1.853300080464
       4       -3.020016240831     1.711527975973     1.703997508518
       5        2.889616795654     1.832840724389     1.912210209719
       6        1.182582088101    -3.061006722429    -0.995599443249
       7       -0.604984209895     3.978078755461    -1.343487233863
       8       -3.645379127281    -1.643588914005    -1.378333617630
       9        3.504442521123     1.670543469521    -3.405448838779
      10       -1.040281420561    -3.453416306097    -2.209458647327
      11        2.550134948318    -1.862167085318     2.832881871717
      12        3.125814248574    -1.596442182353    -1.622988301262
      13        1.694144160931     3.153319302747     1.597557910707
      14       -1.640925065282     1.485892863345    -3.237652783475


  -Exchange Gradient:
     Atom            X                  Y                   Z
    ------   -----------------  -----------------  -----------------
       1        0.002525517489    -0.001338851227     0.080181715606
       2       -0.079213853613     0.047298973624    -0.043475735119
       3       -0.000159985482     0.305438028319    -0.118552953007
       4        0.264667428415    -0.152884777610    -0.117980967710
       5       -0.264638022218    -0.152577330547    -0.118244271116
       6        0.035126322935    -0.095256838321     0.009718115321
       7        0.014422557587    -0.307621333975     0.105887205385
       8        0.273094878403     0.142694982971     0.106056353531
       9        0.042581789505     0.050406009832    -0.045643254366
      10        0.094848956144     0.257549897289     0.175676825537
      11       -0.187103877131     0.119780664329    -0.238108643743
      12       -0.258873299773     0.159187561220     0.122417502345
      13       -0.111700814476    -0.256799528541    -0.169916927198
      14        0.174422402215    -0.115877457362     0.251985034535


  -Total Gradient:
     Atom            X                  Y                   Z
    ------   -----------------  -----------------  -----------------
       1        0.000050257675    -0.000064194127    -0.000019909790
       2       -0.000083364225     0.000027040900    -0.000009971462
       3       -0.000000392588     0.000011176548     0.000018552253
       4        0.000000891414    -0.000009077079    -0.000054156917
       5        0.000037931928     0.000014467328     0.000054098940
       6        0.000038892017    -0.000075406815    -0.000024079492
       7        0.000008096024     0.000012928929    -0.000019529188
       8       -0.000008387108     0.000033869729    -0.000012901644
       9       -0.000075399387     0.000036837077     0.000000660558
      10        0.000021802031    -0.000019273954     0.000023172092
      11       -0.000002888142    -0.000007267066     0.000023513119
      12       -0.000037320158    -0.000030553213     0.000026258876
      13        0.000030736106     0.000060229471    -0.000001516668
      14        0.000019144414     0.000009222272    -0.000004190677


*** tstop() called on Barrys-MacBook-Pro.local at Mon May 13 15:19:28 2024
Module time:
	user time   =       0.44 seconds =       0.01 minutes
	system time =       0.01 seconds =       0.00 minutes
	total time  =          0 seconds =       0.00 minutes
Total time:
	user time   =     926.67 seconds =      15.44 minutes
	system time =      15.20 seconds =       0.25 minutes
	total time  =       2100 seconds =      35.00 minutes

    			-----------------------------------------

    			 OPTKING 3.0: for geometry optimizations 

    			     By R.A. King, Bethel University     

    			        with contributions from          

    			    A.V. Copan, J. Cayton, A. Heide      

    			-----------------------------------------

    
	                            ===> Fragment 1 <== 

	 Z (Atomic Numbers)          Masses                          Geom                  
	       6.000000            12.000000          1.59091258 -0.22124416 -3.17055595   
	       6.000000            12.000000          1.59091258 -0.22124416 -0.25722826   
	       1.000000             1.007825          1.59091258  1.69797515 -3.89760407   
	       1.000000             1.007825          3.25462401 -1.18220427 -3.89308110   
	       1.000000             1.007825         -0.07162695 -1.18112835 -3.89607402   
	       6.000000            12.000000         -0.75808599  1.12718292  0.89492043   
	       1.000000             1.007825          1.66604152 -2.16599858  0.40485416   
	       1.000000             1.007825          3.30659440  0.69630294  0.40657438   
	       6.000000            12.000000         -2.36896505 -0.62511198  2.57480412   
	       1.000000             1.007825         -0.14701973  2.74064439  2.01269985   
	       1.000000             1.007825         -1.94053172  1.86741144 -0.61503027   
	       1.000000             1.007825         -3.98562532  0.38702983  3.33335614   
	       1.000000             1.007825         -3.06217934 -2.22778845  1.49653053   
	       1.000000             1.007825         -1.26337551 -1.34168423  4.14839799   

	 - Coordinate -           - BOHR/RAD -       - ANG/DEG -
	 R(1,2)           =         2.913328           1.541667
	 R(1,3)           =         2.052316           1.086039
	 R(1,4)           =         2.052662           1.086222
	 R(1,5)           =         2.052265           1.086012
	 R(2,6)           =         2.943382           1.557571
	 R(2,7)           =         2.055740           1.087851
	 R(2,8)           =         2.055746           1.087854
	 R(6,9)           =         2.913328           1.541667
	 R(6,10)          =         2.055746           1.087854
	 R(6,11)          =         2.055740           1.087851
	 R(9,12)          =         2.052662           1.086222
	 R(9,13)          =         2.052265           1.086012
	 R(9,14)          =         2.052316           1.086039
	 B(1,2,6)         =         1.972989         113.043946
	 B(1,2,7)         =         1.898706         108.787868
	 B(1,2,8)         =         1.899590         108.838464
	 B(2,1,3)         =         1.932916         110.747937
	 B(2,1,4)         =         1.930497         110.609335
	 B(2,1,5)         =         1.932128         110.702806
	 B(2,6,9)         =         1.972989         113.043946
	 B(2,6,10)        =         1.912587         109.583156
	 B(2,6,11)        =         1.913979         109.662935
	 B(3,1,4)         =         1.889247         108.245900
	 B(3,1,5)         =         1.888251         108.188821
	 B(4,1,5)         =         1.889353         108.251925
	 B(6,2,7)         =         1.913979         109.662936
	 B(6,2,8)         =         1.912587         109.583155
	 B(6,9,12)        =         1.930497         110.609335
	 B(6,9,13)        =         1.932128         110.702807
	 B(6,9,14)        =         1.932916         110.747938
	 B(7,2,8)         =         1.862663         106.722735
	 B(9,6,10)        =         1.899590         108.838466
	 B(9,6,11)        =         1.898707         108.787869
	 B(10,6,11)       =         1.862663         106.722734
	 B(12,9,13)       =         1.889353         108.251925
	 B(12,9,14)       =         1.889247         108.245899
	 B(13,9,14)       =         1.888251         108.188820
	*D(1,2,6,9)       =         2.094407         120.000684
	 D(1,2,6,10)      =        -2.066705        -118.413483
	 D(1,2,6,11)      =        -0.027534          -1.577609
	 D(2,6,9,12)      =         3.144264         180.153048
	 D(2,6,9,13)      =        -1.044721         -59.858120
	 D(2,6,9,14)      =         1.049681          60.142308
	 D(3,1,2,6)       =         1.049681          60.142307
	 D(3,1,2,7)       =         3.180205         182.212326
	 D(3,1,2,8)       =        -1.079698         -61.862117
	 D(4,1,2,6)       =         3.144264         180.153047
	 D(4,1,2,7)       =        -1.008398         -57.776933
	 D(4,1,2,8)       =         1.014885          58.148624
	 D(5,1,2,6)       =        -1.044721         -59.858121
	 D(5,1,2,7)       =         1.085802          62.211899
	 D(5,1,2,8)       =         3.109085         178.137456
	 D(7,2,6,9)       =        -0.027534          -1.577609
	 D(7,2,6,10)      =         2.094539         120.008223
	 D(7,2,6,11)      =        -2.149476        -123.155903
	 D(8,2,6,9)       =        -2.066705        -118.413484
	 D(8,2,6,10)      =         0.055368           3.172348
	 D(8,2,6,11)      =         2.094539         120.008222
	 D(10,6,9,12)     =         1.014885          58.148624
	 D(10,6,9,13)     =         3.109085         178.137456
	 D(10,6,9,14)     =        -1.079698         -61.862116
	 D(11,6,9,12)     =        -1.008398         -57.776933
	 D(11,6,9,13)     =         1.085802          62.211898
	 D(11,6,9,14)     =         3.180205         182.212327


	        --- Internal Coordinate Step in ANG or DEG, aJ/ANG or AJ/DEG ---
	-------------------------------------------------------------------------------
	           Coordinate      Previous         Force          Change          New 
	           ----------      --------        ------          ------        ------
	               R(1,2)       1.54167       -0.00001       -0.00002       1.54165
	               R(1,3)       1.08604       -0.00003       -0.00001       1.08603
	               R(1,4)       1.08622       -0.00020       -0.00003       1.08619
	               R(1,5)       1.08601        0.00047        0.00008       1.08609
	               R(2,6)       1.55757       -0.00008        0.00003       1.55760
	               R(2,7)       1.08785        0.00015        0.00002       1.08787
	               R(2,8)       1.08785       -0.00003       -0.00001       1.08784
	               R(6,9)       1.54167       -0.00001       -0.00002       1.54165
	              R(6,10)       1.08785       -0.00003       -0.00001       1.08784
	              R(6,11)       1.08785        0.00015        0.00002       1.08787
	              R(9,12)       1.08622       -0.00020       -0.00003       1.08619
	              R(9,13)       1.08601        0.00047        0.00008       1.08609
	              R(9,14)       1.08604       -0.00003       -0.00001       1.08603
	             B(1,2,6)     113.04395       -0.00001       -0.02070     113.02325
	             B(1,2,7)     108.78787        0.00000        0.00053     108.78839
	             B(1,2,8)     108.83846        0.00000        0.01492     108.85339
	             B(2,1,3)     110.74794        0.00000        0.00958     110.75751
	             B(2,1,4)     110.60934       -0.00001       -0.03077     110.57857
	             B(2,1,5)     110.70281        0.00000        0.02286     110.72567
	             B(2,6,9)     113.04395       -0.00001       -0.02070     113.02325
	            B(2,6,10)     109.58316        0.00000        0.02080     109.60395
	            B(2,6,11)     109.66294        0.00000       -0.00800     109.65493
	             B(3,1,4)     108.24590        0.00000       -0.00237     108.24353
	             B(3,1,5)     108.18882       -0.00000       -0.00196     108.18686
	             B(4,1,5)     108.25193        0.00000        0.00258     108.25451
	             B(6,2,7)     109.66294        0.00000       -0.00800     109.65493
	             B(6,2,8)     109.58316        0.00000        0.02080     109.60395
	            B(6,9,12)     110.60933       -0.00001       -0.03077     110.57857
	            B(6,9,13)     110.70281        0.00000        0.02286     110.72566
	            B(6,9,14)     110.74794        0.00000        0.00957     110.75751
	             B(7,2,8)     106.72274       -0.00000       -0.00683     106.71590
	            B(9,6,10)     108.83847        0.00000        0.01492     108.85339
	            B(9,6,11)     108.78787        0.00000        0.00053     108.78839
	           B(10,6,11)     106.72273       -0.00000       -0.00683     106.71590
	           B(12,9,13)     108.25192        0.00000        0.00258     108.25451
	           B(12,9,14)     108.24590        0.00000       -0.00237     108.24353
	           B(13,9,14)     108.18882       -0.00000       -0.00196     108.18686
	          *D(1,2,6,9)     120.00068        0.00000        0.00000     120.00069
	          D(1,2,6,10)    -118.41348        0.00000        0.02000    -118.39349
	          D(1,2,6,11)      -1.57761        0.00000        0.01916      -1.55844
	          D(2,6,9,12)     180.15305        0.00000       -0.00509     180.14795
	          D(2,6,9,13)     -59.85812        0.00000       -0.00706     -59.86518
	          D(2,6,9,14)      60.14231        0.00000        0.01176      60.15407
	           D(3,1,2,6)      60.14231        0.00000        0.01176      60.15407
	           D(3,1,2,7)     182.21233        0.00000       -0.01189     182.20044
	           D(3,1,2,8)     -61.86212        0.00000       -0.01160     -61.87372
	           D(4,1,2,6)     180.15305        0.00000       -0.00509     180.14796
	           D(4,1,2,7)     -57.77693       -0.00000       -0.02874     -57.80568
	           D(4,1,2,8)      58.14862       -0.00000       -0.02846      58.12017
	           D(5,1,2,6)     -59.85812        0.00000       -0.00706     -59.86518
	           D(5,1,2,7)      62.21190       -0.00000       -0.03071      62.18119
	           D(5,1,2,8)     178.13746       -0.00000       -0.03042     178.10703
	           D(7,2,6,9)      -1.57761        0.00000        0.01916      -1.55844
	          D(7,2,6,10)     120.00822        0.00000        0.03916     120.04738
	          D(7,2,6,11)    -123.15590        0.00000        0.03833    -123.11758
	           D(8,2,6,9)    -118.41348        0.00000        0.02000    -118.39349
	          D(8,2,6,10)       3.17235        0.00000        0.03999       3.21234
	          D(8,2,6,11)     120.00822        0.00000        0.03916     120.04738
	         D(10,6,9,12)      58.14862       -0.00000       -0.02846      58.12017
	         D(10,6,9,13)     178.13746       -0.00000       -0.03042     178.10703
	         D(10,6,9,14)     -61.86212        0.00000       -0.01161     -61.87372
	         D(11,6,9,12)     -57.77693       -0.00000       -0.02874     -57.80568
	         D(11,6,9,13)      62.21190       -0.00000       -0.03071      62.18119
	         D(11,6,9,14)     182.21233        0.00000       -0.01189     182.20043
	-------------------------------------------------------------------------------

	                                 ==> Convergence Check <==                                  
    
	Measures of convergence in internal coordinates in au.
    
	Criteria marked as inactive (o), active & met (*), and active & unmet ( ).

	----------------------------------------------------------------------------------------------
	   Step    Total Energy     Delta E     Max Force     RMS Force      Max Disp      RMS Disp   
	----------------------------------------------------------------------------------------------
	  Convergence Criteria     1.00e-06 *    3.00e-04 *             o    1.20e-03 *             o
	----------------------------------------------------------------------------------------------
	     4    -155.46123720   -8.04e-06      9.24e-05 *    3.23e-05 o    6.98e-04 *    3.19e-04 o  ~
	----------------------------------------------------------------------------------------------

Next Geometry in Ang 
	Fragment 1 (Ang)

	    C   0.8416157245  -0.1169306426  -1.6776390250
	    C   0.8419583728  -0.1170789229  -0.1359890986
	    H   0.8418037399   0.8986435103  -2.0624462799
	    H   1.7220937756  -0.6254781743  -2.0596704057
	    H  -0.0381465232  -0.6248533860  -2.0618521498
	    C  -0.4011143026   0.5966237987   0.4735417325
	    H   0.8813026127  -1.1462683118   0.2142784919
	    H   1.7500769283   0.3679566346   0.2153901734
	    C  -1.2533338719  -0.3309313997   1.3623879985
	    H  -0.0781521246   1.4507430517   1.0647962694
	    H  -1.0268283221   0.9879671984  -0.3257069543
	    H  -2.1087061064   0.2049259275   1.7636428251
	    H  -1.6203088206  -1.1791943697   0.7919792226
	    H  -0.6683978679  -0.7100147037   2.1952224587


    Final optimized geometry and variables:
    Molecular point group: c1
    Full point group: C1

    Geometry (in Angstrom), charge = 0, multiplicity = 1:

    C       
    C             1    1.541667
    H             1    1.086039      2  110.747937
    H             1    1.086222      2  110.609335      3  120.010740
    H             1    1.086012      2  110.702806      3 -120.000428
    C             2    1.557571      1  113.043946      3   60.142307
    H             2    1.087851      1  108.787868      6  122.070020
    H             2    1.087854      1  108.838464      6 -122.004423
    C             6    1.541667      2  113.043946      1    dihedral
    H             6    1.087854      2  109.583156      9  121.585832
    H             6    1.087851      2  109.662935      9 -121.578294
    H             9    1.086222      6  110.609335     10   58.148624
    H             9    1.086012      6  110.702807     12  119.988831
    H             9    1.086039      6  110.747938     12 -120.010740

    dihedral  =  120.0006844367

