
    -----------------------------------------------------------------------
          Psi4: An Open-Source Ab Initio Electronic Structure Package
                               Psi4 1.9.1 release

                         Git: Rev {} zzzzzzz 


    D. G. A. Smith, L. A. Burns, A. C. Simmonett, R. M. Parrish,
    M. C. Schieber, R. Galvelis, P. Kraus, H. Kruse, R. Di Remigio,
    A. Alenaizan, A. M. James, S. Lehtola, J. P. Misiewicz, M. Scheurer,
    R. A. Shaw, J. B. Schriber, Y. Xie, Z. L. Glick, D. A. Sirianni,
    J. S. O'Brien, J. M. Waldrop, A. Kumar, E. G. Hohenstein,
    B. P. Pritchard, B. R. Brooks, H. F. Schaefer III, A. Yu. Sokolov,
    K. Patkowski, A. E. DePrince III, U. Bozkaya, R. A. King,
    F. A. Evangelista, J. M. Turney, T. D. Crawford, C. D. Sherrill,
    J. Chem. Phys. 152(18) 184108 (2020). https://doi.org/10.1063/5.0006002

                            Additional Code Authors
    E. T. Seidl, C. L. Janssen, E. F. Valeev, M. L. Leininger,
    J. F. Gonthier, R. M. Richard, H. R. McAlexander, M. Saitow, X. Wang,
    P. Verma, M. H. Lechner, A. Jiang, S. Behnle, A. G. Heide,
    M. F. Herbst, and D. L. Poole

             Previous Authors, Complete List of Code Contributors,
                       and Citations for Specific Modules
    https://github.com/psi4/psi4/blob/master/codemeta.json
    https://github.com/psi4/psi4/graphs/contributors
    http://psicode.org/psi4manual/master/introduction.html#citing-psifour

    -----------------------------------------------------------------------


    Psi4 started on: Monday, 06 May 2024 06:09PM

    Process ID: 26831
    Host:       Barrys-MacBook-Pro.local
    PSIDATADIR: /Users/blink/psi4conda/share/psi4
    Memory:     953.7 MiB
    Threads:    4
      Threads set to 4 by Python driver.

Scratch directory: /tmp/
gradient() will perform analytic gradient computation.
   => Libint2 <=

    Primary   basis highest AM E, G, H:  5, 4, 3
    Auxiliary basis highest AM E, G, H:  6, 5, 4
    Onebody   basis highest AM E, G, H:  6, 5, 4
    Solid Harmonics ordering:            Gaussian

*** tstart() called on Barrys-MacBook-Pro.local
*** at Tue May  7 21:07:22 2024

   => Loading Basis Set <=

    Name: 6-31+G*
    Role: ORBITAL
    Keyword: BASIS
    atoms 1-2, 6, 9       entry C          line   119 file /Users/blink/psi4conda/share/psi4/basis/6-31pgs.gbs 
    atoms 3-5, 7-8, 10-14 entry H          line    46 file /Users/blink/psi4conda/share/psi4/basis/6-31pgs.gbs 


         ---------------------------------------------------------
                                   SCF
               by Justin Turney, Rob Parrish, Andy Simmonett
                          and Daniel G. A. Smith
                              RHF Reference
                        4 Threads,    953 MiB Core
         ---------------------------------------------------------

  ==> Geometry <==

    Molecular point group: c1
    Full point group: C1

    Geometry (in Angstrom), charge = 0, multiplicity = 1:

       Center              X                  Y                   Z               Mass       
    ------------   -----------------  -----------------  -----------------  -----------------
         C            0.630119456690    -0.326933635967    -1.742833044354    12.000000000000
         C            0.630119456690    -0.326933635967    -0.242833044354    12.000000000000
         H            0.630119456690     0.618584939632    -2.068401198811     1.007825032230
         H            1.448962562909    -0.799692923767    -2.068401198811     1.007825032230
         H           -0.184193948178    -0.797077699472    -2.083212594567     1.007825032230
         C           -0.598145202638     0.382205295732     0.245519187332    12.000000000000
         H            0.630119456690    -1.272452211566     0.082735110103     1.007825032230
         H            1.448962562909     0.145825651833     0.082735110103     1.007825032230
         C           -0.661472411751     0.276033518728     1.740416246782    12.000000000000
         H           -0.548934498328     1.343291993722    -0.026309187803     1.007825032230
         H           -1.404905484185    -0.046354111094    -0.161266607577     1.007825032230
         H           -0.641020190084     1.189117797333     2.147673913123     1.007825032230
         H           -1.506282080474    -0.184105287607     2.013489318570     1.007825032230
         H            0.119774461397    -0.249189356946     2.077750286074     1.007825032230

  Running in c1 symmetry.

  Rotational constants: A =      0.84095  B =      0.13295  C =      0.12399 [cm^-1]
  Rotational constants: A =  25211.01683  B =   3985.77088  C =   3717.23227 [MHz]
  Nuclear repulsion =  137.375179355794302

  Charge       = 0
  Multiplicity = 1
  Electrons    = 34
  Nalpha       = 17
  Nbeta        = 17

  ==> Algorithm <==

  SCF Algorithm Type is DIRECT.
  DIIS enabled.
  MOM disabled.
  Fractional occupation disabled.
  Guess Type is SAD.
  Energy threshold   = 1.00e-08
  Density threshold  = 1.00e-08
  Integral threshold = 1.00e-08

  ==> Primary Basis <==

  -AO BASIS SET INFORMATION:
    Name                   = 6-31+G*
    Blend                  = 6-31+G*
    Total number of shells = 52
    Number of primitives   = 108
    Number of AO           = 96
    Number of SO           = 96
    Maximum AM             = 2
    Spherical Harmonics    = FALSE

  -Contraction Scheme:
    Atom   Type   All Primitives // Shells:
   ------ ------ --------------------------
       1     C     11s 5p 1d // 4s 3p 1d 
       2     C     11s 5p 1d // 4s 3p 1d 
       3     H     4s // 2s 
       4     H     4s // 2s 
       5     H     4s // 2s 
       6     C     11s 5p 1d // 4s 3p 1d 
       7     H     4s // 2s 
       8     H     4s // 2s 
       9     C     11s 5p 1d // 4s 3p 1d 
      10     H     4s // 2s 
      11     H     4s // 2s 
      12     H     4s // 2s 
      13     H     4s // 2s 
      14     H     4s // 2s 

   => Loading Basis Set <=

    Name: (6-31+G* AUX)
    Role: JKFIT
    Keyword: DF_BASIS_SCF
    atoms 1-2, 6, 9       entry C          line   194 file /Users/blink/psi4conda/share/psi4/basis/heavy-aug-cc-pvdz-jkfit.gbs 
    atoms 3-5, 7-8, 10-14 entry H          line   116 file /Users/blink/psi4conda/share/psi4/basis/heavy-aug-cc-pvdz-jkfit.gbs 

  Starting with a DF guess...

  ==> Integral Setup <==

  DFHelper Memory: AOs need 0.050 GiB; user supplied 0.698 GiB. 
  Using in-core AOs.

  ==> MemDFJK: Density-Fitted J/K Matrices <==

    J tasked:                   Yes
    K tasked:                   Yes
    wK tasked:                   No
    OpenMP threads:               4
    Memory [MiB]:               715
    Algorithm:                 Core
    Schwarz Cutoff:           1E-08
    Mask sparsity (%):       1.9314
    Fitting Condition:        1E-10

   => Auxiliary Basis Set <=

  -AO BASIS SET INFORMATION:
    Name                   = (6-31+G* AUX)
    Blend                  = HEAVY-AUG-CC-PVDZ-JKFIT
    Total number of shells = 202
    Number of primitives   = 202
    Number of AO           = 654
    Number of SO           = 654
    Maximum AM             = 3
    Spherical Harmonics    = FALSE

  -Contraction Scheme:
    Atom   Type   All Primitives // Shells:
   ------ ------ --------------------------
       1     C     11s 8p 6d 3f // 11s 8p 6d 3f 
       2     C     11s 8p 6d 3f // 11s 8p 6d 3f 
       3     H     4s 3p 2d // 4s 3p 2d 
       4     H     4s 3p 2d // 4s 3p 2d 
       5     H     4s 3p 2d // 4s 3p 2d 
       6     C     11s 8p 6d 3f // 11s 8p 6d 3f 
       7     H     4s 3p 2d // 4s 3p 2d 
       8     H     4s 3p 2d // 4s 3p 2d 
       9     C     11s 8p 6d 3f // 11s 8p 6d 3f 
      10     H     4s 3p 2d // 4s 3p 2d 
      11     H     4s 3p 2d // 4s 3p 2d 
      12     H     4s 3p 2d // 4s 3p 2d 
      13     H     4s 3p 2d // 4s 3p 2d 
      14     H     4s 3p 2d // 4s 3p 2d 

  Minimum eigenvalue in the overlap matrix is 4.0892891392E-05.
  Reciprocal condition number of the overlap matrix is 3.8594541075E-06.
    Using symmetric orthogonalization.

  ==> Pre-Iterations <==

  SCF Guess: Superposition of Atomic Densities via on-the-fly atomic UHF (no occupation information).

   -------------------------
    Irrep   Nso     Nmo    
   -------------------------
     A         96      96 
   -------------------------
    Total      96      96
   -------------------------

  ==> Iterations <==

                           Total Energy        Delta E     RMS |[F,P]|

   @DF-RHF iter SAD:  -157.22947966399110   -1.57229e+02   0.00000e+00 
   @DF-RHF iter   1:  -157.04388050249418    1.85599e-01   5.95383e-03 DIIS/ADIIS
   @DF-RHF iter   2:  -157.20037752376206   -1.56497e-01   2.41195e-03 DIIS/ADIIS
   @DF-RHF iter   3:  -157.22709352420591   -2.67160e-02   4.08606e-04 DIIS/ADIIS
   @DF-RHF iter   4:  -157.22853402898457   -1.44050e-03   8.07202e-05 DIIS
   @DF-RHF iter   5:  -157.22857938710476   -4.53581e-05   2.15859e-05 DIIS
   @DF-RHF iter   6:  -157.22858338780182   -4.00070e-06   2.16832e-06 DIIS
   @DF-RHF iter   7:  -157.22858345056403   -6.27622e-08   4.50825e-07 DIIS
   @DF-RHF iter   8:  -157.22858345315368   -2.58964e-09   1.02002e-07 DIIS
   @DF-RHF iter   9:  -157.22858345327671   -1.23038e-10   3.08885e-08 DIIS
   @DF-RHF iter  10:  -157.22858345328558   -8.86757e-12   7.18045e-09 DIIS

  DF guess converged.

  ==> DirectJK: Integral-Direct J/K Matrices <==

    J tasked:                  Yes
    K tasked:                  Yes
    wK tasked:                  No
    Integrals threads:           4
    Screening Type:           CSAM
    Screening Cutoff:        1E-08
    Incremental Fock:           No

   @RHF iter  11:  -157.22857898164162   -1.57229e+02   3.61944e-06 DIIS
   @RHF iter  12:  -157.22857903683763   -5.51960e-08   6.80717e-07 DIIS
   @RHF iter  13:  -157.22857903950393   -2.66630e-09   8.79771e-08 DIIS
   @RHF iter  14:  -157.22857903956512   -6.11919e-11   2.77090e-08 DIIS
   @RHF iter  15:  -157.22857903957069   -5.57066e-12   4.39841e-09 DIIS
  Energy and wave function converged.


  ==> Post-Iterations <==

    Orbital Energies [Eh]
    ---------------------

    Doubly Occupied:                                                      

       1A    -11.180648     2A    -11.179155     3A    -11.168385  
       4A    -11.167356     5A     -1.100490     6A     -1.008454  
       7A     -0.886698     8A     -0.822950     9A     -0.674778  
      10A     -0.609334    11A     -0.601301    12A     -0.589337  
      13A     -0.526637    14A     -0.522811    15A     -0.485601  
      16A     -0.479829    17A     -0.443143  

    Virtual:                                                              

      18A      0.087070    19A      0.091037    20A      0.097842  
      21A      0.111428    22A      0.119691    23A      0.133107  
      24A      0.138327    25A      0.147100    26A      0.159323  
      27A      0.164284    28A      0.175747    29A      0.180924  
      30A      0.213839    31A      0.231049    32A      0.247014  
      33A      0.262535    34A      0.360381    35A      0.385260  
      36A      0.390461    37A      0.397926    38A      0.420340  
      39A      0.433154    40A      0.471738    41A      0.476277  
      42A      0.482455    43A      0.492762    44A      0.509396  
      45A      0.543746    46A      0.558451    47A      0.806861  
      48A      0.824959    49A      0.828310    50A      0.850485  
      51A      0.851129    52A      0.930212    53A      0.950476  
      54A      0.982042    55A      1.022400    56A      1.037323  
      57A      1.044900    58A      1.098334    59A      1.266323  
      60A      1.280745    61A      1.292734    62A      1.330974  
      63A      1.334971    64A      1.341031    65A      1.415548  
      66A      1.456507    67A      1.482477    68A      1.518820  
      69A      1.541304    70A      1.617486    71A      1.700253  
      72A      1.730286    73A      1.786933    74A      1.961342  
      75A      2.055984    76A      2.175268    77A      2.255993  
      78A      2.295343    79A      2.354518    80A      2.432648  
      81A      2.466226    82A      2.480329    83A      2.648031  
      84A      2.658952    85A      2.797561    86A      2.816536  
      87A      2.862148    88A      2.871666    89A      2.993689  
      90A      3.021798    91A      3.100677    92A      3.188574  
      93A      4.712916    94A      4.779609    95A      4.889201  
      96A      5.073443  

    Final Occupation by Irrep:
              A 
    DOCC [    17 ]
    NA   [    17 ]
    NB   [    17 ]

  @RHF Final Energy:  -157.22857903957069

   => Energetics <=

    Nuclear Repulsion Energy =            137.3751793557943017
    One-Electron Energy =                -482.3137080177704092
    Two-Electron Energy =                 187.7099496224053894
    Total Energy =                       -157.2285790395706897

Computation Completed


Properties will be evaluated at   0.000000,   0.000000,   0.000000 [a0]

Properties computed using the SCF density matrix


 Multipole Moments:

 ------------------------------------------------------------------------------------
     Multipole            Electronic (a.u.)      Nuclear  (a.u.)        Total (a.u.)
 ------------------------------------------------------------------------------------

 L = 1.  Multiply by 2.5417464519 to convert [e a0] to [Debye]
 Dipole X            :          0.0073065           -0.0069351            0.0003714
 Dipole Y            :          0.0529191           -0.0487964            0.0041227
 Dipole Z            :          0.0098522           -0.0030065            0.0068457
 Magnitude           :                                                    0.0079999

 ------------------------------------------------------------------------------------

*** tstop() called on Barrys-MacBook-Pro.local at Tue May  7 21:07:25 2024
Module time:
	user time   =       9.12 seconds =       0.15 minutes
	system time =       0.17 seconds =       0.00 minutes
	total time  =          3 seconds =       0.05 minutes
Total time:
	user time   =     627.21 seconds =      10.45 minutes
	system time =      14.74 seconds =       0.25 minutes
	total time  =      93431 seconds =    1557.18 minutes

*** tstart() called on Barrys-MacBook-Pro.local
*** at Tue May  7 21:07:25 2024


         ------------------------------------------------------------
                                   SCF GRAD                          
                          Rob Parrish, Justin Turney,                
                       Andy Simmonett, and Alex Sokolov              
         ------------------------------------------------------------

  ==> Geometry <==

    Molecular point group: c1
    Full point group: C1

    Geometry (in Angstrom), charge = 0, multiplicity = 1:

       Center              X                  Y                   Z               Mass       
    ------------   -----------------  -----------------  -----------------  -----------------
         C            0.630119456690    -0.326933635967    -1.742833044354    12.000000000000
         C            0.630119456690    -0.326933635967    -0.242833044354    12.000000000000
         H            0.630119456690     0.618584939632    -2.068401198811     1.007825032230
         H            1.448962562909    -0.799692923767    -2.068401198811     1.007825032230
         H           -0.184193948178    -0.797077699472    -2.083212594567     1.007825032230
         C           -0.598145202638     0.382205295732     0.245519187332    12.000000000000
         H            0.630119456690    -1.272452211566     0.082735110103     1.007825032230
         H            1.448962562909     0.145825651833     0.082735110103     1.007825032230
         C           -0.661472411751     0.276033518728     1.740416246782    12.000000000000
         H           -0.548934498328     1.343291993722    -0.026309187803     1.007825032230
         H           -1.404905484185    -0.046354111094    -0.161266607577     1.007825032230
         H           -0.641020190084     1.189117797333     2.147673913123     1.007825032230
         H           -1.506282080474    -0.184105287607     2.013489318570     1.007825032230
         H            0.119774461397    -0.249189356946     2.077750286074     1.007825032230

  Nuclear repulsion =  137.375179355794302

  ==> Basis Set <==

  -AO BASIS SET INFORMATION:
    Name                   = 6-31+G*
    Blend                  = 6-31+G*
    Total number of shells = 52
    Number of primitives   = 108
    Number of AO           = 96
    Number of SO           = 96
    Maximum AM             = 2
    Spherical Harmonics    = FALSE

  -Contraction Scheme:
    Atom   Type   All Primitives // Shells:
   ------ ------ --------------------------
       1     C     11s 5p 1d // 4s 3p 1d 
       2     C     11s 5p 1d // 4s 3p 1d 
       3     H     4s // 2s 
       4     H     4s // 2s 
       5     H     4s // 2s 
       6     C     11s 5p 1d // 4s 3p 1d 
       7     H     4s // 2s 
       8     H     4s // 2s 
       9     C     11s 5p 1d // 4s 3p 1d 
      10     H     4s // 2s 
      11     H     4s // 2s 
      12     H     4s // 2s 
      13     H     4s // 2s 
      14     H     4s // 2s 

  ==> DirectJKGrad: Integral-Direct SCF Gradients <==

    Gradient:                    1
    J tasked:                  Yes
    K tasked:                  Yes
    wK tasked:                  No
    Integrals threads:           4
    Schwarz Cutoff:          1E-08


  -Nuclear Gradient:
     Atom            X                  Y                   Z
    ------   -----------------  -----------------  -----------------
       1       -1.313623542680     0.728154049546     6.127858836369
       2       -4.059421743668     2.223155736919    -1.003445516437
       3       -0.186786222260    -2.014069545642     1.382403782833
       4       -1.889118519017     1.086768995202     1.226418528523
       5        1.633683544830     1.153968498035     1.409669836272
       6        3.881503752075    -2.605734929941     0.942885911857
       7       -0.399730521855     2.472600416027    -0.758321754024
       8       -2.337265958383    -0.917229420518    -0.779021122417
       9        1.524340952326    -0.390874322840    -6.052974584949
      10        0.263122833503    -2.530812156485     0.638403379999
      11        2.313289004331     0.764018755498     0.941220003018
      12        0.093769491704    -2.036478840700    -1.429979100271
      13        1.989233486706     0.970099692708    -1.138019589061
      14       -1.512996557613     1.096433072190    -1.507098611714


  -Core Hamiltonian Gradient:
     Atom            X                  Y                   Z
    ------   -----------------  -----------------  -----------------
       1        2.123486876805    -1.186109856360   -10.373458017703
       2        7.155333254636    -3.827337580702     0.886476632699
       3        0.304142975480     4.831912339779    -2.725226621405
       4        4.397897453486    -2.547022694644    -2.368469504558
       5       -3.991603837032    -2.658629498619    -2.844689606842
       6       -6.565621329294     4.293448023450    -0.079149179131
       7        0.593072419236    -5.752187171975     1.709214892160
       8        5.259232359396     2.420830190666     1.723181658014
       9       -2.856668342129     0.834342486401     9.524184054858
      10       -0.228044713835     5.919079342696    -1.470422029641
      11       -5.248969480178    -2.129647794583    -2.237382031789
      12       -0.133030839139     4.821447678562     2.965073976143
      13       -4.633516321532    -2.320763662401     2.279641214835
      14        3.824289524100    -2.699361802271     3.011024562360


  -Overlap Gradient:
     Atom            X                  Y                   Z
    ------   -----------------  -----------------  -----------------
       1        0.037193835022    -0.021499306173    -0.097868036716
       2        0.022507726203    -0.015827715080     0.063099470187
       3        0.002041383008    -0.172271029244     0.052977263811
       4       -0.151755744033     0.088061116700     0.050328578667
       5        0.149502434046     0.084318236096     0.057556487683
       6       -0.036548737131     0.033517681336    -0.104896592088
       7        0.005498252423     0.172115208331    -0.056278543027
       8       -0.146059450807    -0.091219487360    -0.055395639678
       9       -0.020992920936     0.004122478158     0.143435345160
      10       -0.015929175498    -0.179155768086     0.049500138728
      11        0.147647767627     0.084973261552     0.075456274968
      12       -0.004169953668    -0.169553591726    -0.072620262183
      13        0.156058384739     0.085334698128    -0.048047886065
      14       -0.144993800995     0.097084217368    -0.057246599447


  -Coulomb Gradient:
     Atom            X                  Y                   Z
    ------   -----------------  -----------------  -----------------
       1       -0.813606720371     0.461624430140     4.127326396237
       2       -2.988036460708     1.542020780248     0.191843969575
       3       -0.117500433616    -2.995440688732     1.406051351368
       4       -2.663832132558     1.549702760139     1.206003498533
       5        2.510705817195     1.593086723556     1.500786718996
       6        2.583373888053    -1.618352836753    -0.943749301624
       7       -0.194930936304     3.456327158042    -1.011761799089
       8       -3.075862824225    -1.590677355844    -1.005491956560
       9        1.334400383804    -0.457324132205    -3.347521278394
      10       -0.042661723579    -3.566885444553     0.883900728431
      11        3.086387626691     1.443706150548     1.372721998746
      12        0.035486359786    -2.956757179536    -1.614074760515
      13        2.803601442000     1.437463195553    -1.195385106134
      14       -2.457524286168     1.701506439396    -1.570650459569


  -Exchange Gradient:
     Atom            X                  Y                   Z
    ------   -----------------  -----------------  -----------------
       1       -0.042012538255     0.021644696825     0.153961281870
       2       -0.072858800700     0.045700897705    -0.081103763015
       3       -0.002564455498     0.277700998583    -0.085449115786
       4        0.243950292586    -0.142025327019    -0.081262398238
       5       -0.239867851112    -0.136482885328    -0.093496547250
       6        0.082347357495    -0.064830230403     0.137501243451
       7       -0.006343135913    -0.275928310944     0.087975045194
       8        0.235289195118     0.144432723114     0.086920863952
       9        0.024366041195     0.000070418149    -0.212768799475
      10        0.024008229218     0.284104198865    -0.076220916910
      11       -0.235072564783    -0.134115282450    -0.117582588599
      12        0.006913665762     0.272860945063     0.113923398485
      13       -0.251151929718    -0.137071045949     0.074482125431
      14        0.232996494606    -0.156061796211     0.093120170890


  -Total Gradient:
     Atom            X                  Y                   Z
    ------   -----------------  -----------------  -----------------
       1       -0.008562089479     0.003814013978    -0.062179539943
       2        0.057523975763    -0.032287880910     0.056870793010
       3       -0.000666752886    -0.072167925256     0.030756660821
       4       -0.062858649535     0.035484850379     0.033018702928
       5        0.062420107927     0.036261073740     0.029826888859
       6       -0.054945068802     0.038047707688    -0.047407917535
       7       -0.002433922412     0.072927299481    -0.029172158785
       8       -0.064666678900    -0.033863349942    -0.029806196691
       9        0.005446114258    -0.009663072336     0.054354737199
      10        0.000495449808    -0.073669827563     0.025161300607
      11        0.063282353689     0.028935090566     0.034433656345
      12       -0.001031275556    -0.068480988336    -0.037676748341
      13        0.064225062195     0.035062878040    -0.027329240995
      14       -0.058228626069     0.039600130472    -0.030850937480


*** tstop() called on Barrys-MacBook-Pro.local at Tue May  7 21:07:26 2024
Module time:
	user time   =       3.26 seconds =       0.05 minutes
	system time =       0.03 seconds =       0.00 minutes
	total time  =          1 seconds =       0.02 minutes
Total time:
	user time   =     630.48 seconds =      10.51 minutes
	system time =      14.77 seconds =       0.25 minutes
	total time  =      93432 seconds =    1557.20 minutes

    			-----------------------------------------

    			 OPTKING 3.0: for geometry optimizations 

    			     By R.A. King, Bethel University     

    			        with contributions from          

    			    A.V. Copan, J. Cayton, A. Heide      

    			-----------------------------------------

    
	                            ===> Fragment 1 <== 

	 Z (Atomic Numbers)          Masses                          Geom                  
	       6.000000            12.000000          1.19075320 -0.61781503 -3.29347714   
	       6.000000            12.000000          1.19075320 -0.61781503 -0.45888795   
	       1.000000             1.007825          1.19075320  1.16895612 -3.90871178   
	       1.000000             1.007825          2.73814241 -1.51120061 -3.90871178   
	       1.000000             1.007825         -0.34807612 -1.50625855 -3.93670126   
	       6.000000            12.000000         -1.13033062  0.72226333  0.46396402   
	       1.000000             1.007825          1.19075320 -2.40458619  0.15634670   
	       1.000000             1.007825          2.73814241  0.27557054  0.15634670   
	       6.000000            12.000000         -1.25000170  0.52162775  3.28891005   
	       1.000000             1.007825         -1.03733586  2.53845397 -0.04971716   
	       1.000000             1.007825         -2.65488660 -0.08759657 -0.30474972   
	       1.000000             1.007825         -1.21135260  2.24710697  4.05851550   
	       1.000000             1.007825         -2.84646060 -0.34790857  3.80494337   
	       1.000000             1.007825          0.22634093 -0.47089964  3.92637900   

	 - Coordinate -           - BOHR/RAD -       - ANG/DEG -
	 R(1,2)           =         2.834589           1.500000
	 R(1,3)           =         1.889726           1.000000
	 R(1,4)           =         1.889726           1.000000
	 R(1,5)           =         1.889726           1.000000
	 R(2,6)           =         2.834589           1.500000
	 R(2,7)           =         1.889726           1.000000
	 R(2,8)           =         1.889726           1.000000
	 R(6,9)           =         2.834589           1.500000
	 R(6,10)          =         1.889726           1.000000
	 R(6,11)          =         1.889726           1.000000
	 R(9,12)          =         1.889726           1.000000
	 R(9,13)          =         1.889726           1.000000
	 R(9,14)          =         1.889726           1.000000
	 B(1,2,6)         =         1.902409         109.000000
	 B(1,2,7)         =         1.902409         109.000000
	 B(1,2,8)         =         1.902409         109.000000
	 B(2,1,3)         =         1.902409         109.000000
	 B(2,1,4)         =         1.902409         109.000000
	 B(2,1,5)         =         1.918117         109.900000
	 B(2,6,9)         =         1.902409         109.000000
	 B(2,6,10)        =         1.902409         109.000000
	 B(2,6,11)        =         1.902409         109.000000
	 B(3,1,4)         =         1.918785         109.938303
	 B(3,1,5)         =         1.911036         109.494307
	 B(4,1,5)         =         1.911036         109.494307
	 B(6,2,7)         =         1.918785         109.938303
	 B(6,2,8)         =         1.918785         109.938303
	 B(6,9,12)        =         1.918117         109.900000
	 B(6,9,13)        =         1.918117         109.900000
	 B(6,9,14)        =         1.918117         109.900000
	 B(7,2,8)         =         1.918785         109.938303
	 B(9,6,10)        =         1.918785         109.938303
	 B(9,6,11)        =         1.918785         109.938303
	 B(10,6,11)       =         1.918785         109.938303
	 B(12,9,13)       =         1.903091         109.039059
	 B(12,9,14)       =         1.903091         109.039059
	 B(13,9,14)       =         1.903091         109.039059
	 D(1,2,6,9)       =         3.054326         175.000000
	 D(1,2,6,10)      =        -1.134464         -65.000000
	 D(1,2,6,11)      =         0.959931          55.000000
	 D(2,6,9,12)      =         2.084249         119.418677
	 D(2,6,9,13)      =        -2.104541        -120.581323
	 D(2,6,9,14)      =        -0.010146          -0.581323
	 D(3,1,2,6)       =         1.047198          60.000000
	 D(3,1,2,7)       =         3.141593         180.000000
	 D(3,1,2,8)       =        -1.047198         -60.000000
	 D(4,1,2,6)       =         3.141593         180.000000
	 D(4,1,2,7)       =        -1.047198         -60.000000
	 D(4,1,2,8)       =         1.047198          60.000000
	 D(5,1,2,6)       =        -1.047198         -60.000000
	 D(5,1,2,7)       =         1.047198          60.000000
	 D(5,1,2,8)       =         3.141593         180.000000
	 D(7,2,6,9)       =         0.970077          55.581323
	 D(7,2,6,10)      =         3.064472         175.581323
	 D(7,2,6,11)      =        -1.124318         -64.418677
	 D(8,2,6,9)       =        -1.144610         -65.581323
	 D(8,2,6,10)      =         0.949785          54.418677
	 D(8,2,6,11)      =         3.044180         174.418677
	 D(10,6,9,12)     =         0.000000           0.000000
	 D(10,6,9,13)     =         2.094395         120.000000
	 D(10,6,9,14)     =        -2.094395        -120.000000
	 D(11,6,9,12)     =        -2.114687        -121.162647
	 D(11,6,9,13)     =        -0.020292          -1.162647
	 D(11,6,9,14)     =         2.074103         118.837353


	        --- Internal Coordinate Step in ANG or DEG, aJ/ANG or AJ/DEG ---
	-------------------------------------------------------------------------------
	           Coordinate      Previous         Force          Change          New 
	           ----------      --------        ------          ------        ------
	               R(1,2)       1.50000        0.25888        0.03783       1.53783
	               R(1,3)       1.00000        0.64468        0.06986       1.06986
	               R(1,4)       1.00000        0.65083        0.07053       1.07053
	               R(1,5)       1.00000        0.64287        0.06967       1.06967
	               R(2,6)       1.50000        0.24806        0.03625       1.53625
	               R(2,7)       1.00000        0.64634        0.07004       1.07004
	               R(2,8)       1.00000        0.64810        0.07023       1.07023
	               R(6,9)       1.50000        0.34235        0.05002       1.55002
	              R(6,10)       1.00000        0.63948        0.06930       1.06930
	              R(6,11)       1.00000        0.63818        0.06916       1.06916
	              R(9,12)       1.00000        0.64175        0.06955       1.06955
	              R(9,13)       1.00000        0.64142        0.06951       1.06951
	              R(9,14)       1.00000        0.63188        0.06848       1.06848
	             B(1,2,6)     109.00000        0.00128        3.06912     112.06912
	             B(1,2,7)     109.00000       -0.00023       -0.20685     108.79315
	             B(1,2,8)     109.00000       -0.00027       -0.36233     108.63767
	             B(2,1,3)     109.00000        0.00040        1.07254     110.07254
	             B(2,1,4)     109.00000        0.00066        1.81625     110.81625
	             B(2,1,5)     109.90000        0.00015        0.39373     110.29373
	             B(2,6,9)     109.00000        0.00149        3.57476     112.57476
	            B(2,6,10)     109.00000       -0.00042       -0.88410     108.11590
	            B(2,6,11)     109.00000       -0.00043       -0.89838     108.10162
	             B(3,1,4)     109.93830       -0.00050       -1.37122     108.56708
	             B(3,1,5)     109.49431       -0.00031       -0.88514     108.60917
	             B(4,1,5)     109.49431       -0.00040       -1.07263     108.42168
	             B(6,2,7)     109.93830       -0.00041       -0.95607     108.98223
	             B(6,2,8)     109.93830       -0.00040       -0.95766     108.98065
	            B(6,9,12)     109.90000        0.00049        1.31611     111.21611
	            B(6,9,13)     109.90000        0.00046        1.24211     111.14211
	            B(6,9,14)     109.90000        0.00034        0.91057     110.81057
	             B(7,2,8)     109.93830        0.00003       -0.59448     109.34382
	            B(9,6,10)     109.93830       -0.00034       -0.60146     109.33685
	            B(9,6,11)     109.93830       -0.00031       -0.46565     109.47265
	           B(10,6,11)     109.93830        0.00002       -0.76184     109.17646
	           B(12,9,13)     109.03906       -0.00047       -1.29108     107.74798
	           B(12,9,14)     109.03906       -0.00042       -1.16738     107.87168
	           B(13,9,14)     109.03906       -0.00041       -1.13646     107.90260
	           D(1,2,6,9)     175.00000        0.00006        0.31124     175.31124
	          D(1,2,6,10)     -65.00000        0.00028        1.19605     -63.80395
	          D(1,2,6,11)      55.00000       -0.00020       -0.73404      54.26596
	          D(2,6,9,12)     119.41868       -0.00001       -0.03779     119.38089
	          D(2,6,9,13)    -120.58132        0.00000        0.00943    -120.57189
	          D(2,6,9,14)      -0.58132       -0.00000       -0.01919      -0.60051
	           D(3,1,2,6)      60.00000       -0.00003       -0.15014      59.84986
	           D(3,1,2,7)     180.00000        0.00010        0.42867     180.42867
	           D(3,1,2,8)     -60.00000       -0.00015       -0.62274     -60.62274
	           D(4,1,2,6)     180.00000       -0.00001       -0.04402     179.95598
	           D(4,1,2,7)     -60.00000        0.00013        0.53479     -59.46521
	           D(4,1,2,8)      60.00000       -0.00012       -0.51662      59.48338
	           D(5,1,2,6)     -60.00000        0.00001        0.02474     -59.97526
	           D(5,1,2,7)      60.00000        0.00014        0.60355      60.60355
	           D(5,1,2,8)     180.00000       -0.00011       -0.44786     179.55214
	           D(7,2,6,9)      55.58132       -0.00020       -0.73918      54.84214
	          D(7,2,6,10)     175.58132        0.00002        0.14563     175.72695
	          D(7,2,6,11)     -64.41868       -0.00046       -1.78446     -66.20313
	           D(8,2,6,9)     -65.58132        0.00027        1.16583     -64.41549
	          D(8,2,6,10)      54.41868        0.00049        2.05064      56.46932
	          D(8,2,6,11)     174.41868        0.00002        0.12055     174.53923
	         D(10,6,9,12)       0.00000       -0.00020       -0.80220      -0.80220
	         D(10,6,9,13)     120.00000       -0.00019       -0.75498     119.24502
	         D(10,6,9,14)    -120.00000       -0.00019       -0.78360    -120.78360
	         D(11,6,9,12)    -121.16265        0.00019        0.80179    -120.36086
	         D(11,6,9,13)      -1.16265        0.00020        0.84900      -0.31364
	         D(11,6,9,14)     118.83735        0.00020        0.82038     119.65774
	-------------------------------------------------------------------------------

	                                 ==> Convergence Check <==                                  
    
	Measures of convergence in internal coordinates in au.
    
	Criteria marked as inactive (o), active & met (*), and active & unmet ( ).

	----------------------------------------------------------------------------------------------
	   Step    Total Energy     Delta E     Max Force     RMS Force      Max Disp      RMS Disp   
	----------------------------------------------------------------------------------------------
	  Convergence Criteria     1.00e-06 *    3.00e-04 *             o    1.20e-03 *             o
	----------------------------------------------------------------------------------------------
	     1    -157.22857904   -1.57e+02      7.90e-02      3.21e-02 o    1.33e-01      5.74e-02 o  ~
	----------------------------------------------------------------------------------------------

Next Geometry in Ang 
	Fragment 1 (Ang)

	    C   0.6641868196  -0.3409150708  -1.8173334396
	    C   0.6405460004  -0.3336119366  -0.2797054422
	    H   0.6668527696   0.6622041623  -2.1892919503
	    H   1.5370790195  -0.8420145029  -2.1820189016
	    H  -0.1989086017  -0.8442936374  -2.1992565941
	    C  -0.6013754306   0.3804501539   0.2750890104
	    H   0.6458274193  -1.3449051876   0.0699411035
	    H   1.5174092320   0.1681685157   0.0734654057
	    C  -0.6969964628   0.2941792178   1.8197529073
	    H  -0.5541354166   1.4071578737  -0.0199405890
	    H  -1.4667709218  -0.0709073874  -0.1613396649
	    H  -0.6818506741   1.2672397994   2.2634345206
	    H  -1.6015019856  -0.1887603654   2.1238800104
	    H   0.1228618310  -0.2616713001   2.2203859196


    Structure for next step:
    Molecular point group: c1
    Full point group: C1

    Geometry (in Angstrom), charge = 0, multiplicity = 1:

    C       
    C             1    1.537827
    H             1    1.069864      2  110.072543
    H             1    1.070531      2  110.816248      3  120.106121
    H             1    1.069668      2  110.293726      3 -119.825116
    C             2    1.536246      1  112.069119      3   59.849856
    H             2    1.070044      1  108.793152      6  120.578814
    H             2    1.070235      1  108.637672      6 -120.472599
    C             6    1.550023      2  112.574762      1    dihedral
    H             6    1.069300      2  108.115903      9  120.884807
    H             6    1.069160      2  108.101618      9 -121.045280
    H             9    1.069546      6  111.216114     10   -0.802198
    H             9    1.069511      6  111.142112     10  119.245017
    H             9    1.068478      6  110.810570     10 -120.783603

    dihedral  =  175.3112413158


Scratch directory: /tmp/
gradient() will perform analytic gradient computation.
   => Libint2 <=

    Primary   basis highest AM E, G, H:  5, 4, 3
    Auxiliary basis highest AM E, G, H:  6, 5, 4
    Onebody   basis highest AM E, G, H:  6, 5, 4
    Solid Harmonics ordering:            Gaussian

*** tstart() called on Barrys-MacBook-Pro.local
*** at Tue May  7 21:07:26 2024

   => Loading Basis Set <=

    Name: 6-31+G*
    Role: ORBITAL
    Keyword: BASIS
    atoms 1-2, 6, 9       entry C          line   119 file /Users/blink/psi4conda/share/psi4/basis/6-31pgs.gbs 
    atoms 3-5, 7-8, 10-14 entry H          line    46 file /Users/blink/psi4conda/share/psi4/basis/6-31pgs.gbs 


         ---------------------------------------------------------
                                   SCF
               by Justin Turney, Rob Parrish, Andy Simmonett
                          and Daniel G. A. Smith
                              RHF Reference
                        4 Threads,    953 MiB Core
         ---------------------------------------------------------

  ==> Geometry <==

    Molecular point group: c1
    Full point group: C1

    Geometry (in Angstrom), charge = 0, multiplicity = 1:

       Center              X                  Y                   Z               Mass       
    ------------   -----------------  -----------------  -----------------  -----------------
         C            0.634081674473    -0.333355221775    -1.828440391465    12.000000000000
         C            0.634081674473    -0.333355221775    -0.290613326251    12.000000000000
         H            0.634081674473     0.671523751168    -2.195627927428     1.007825032230
         H            1.499743687127    -0.835285510829    -2.208877225307     1.007825032230
         H           -0.236302834178    -0.832335939622    -2.199436393882     1.007825032230
         C           -0.596997636111     0.381716666563     0.286592287062    12.000000000000
         H            0.641660560126    -1.346324652849     0.054104140690     1.007825032230
         H            1.517785857789     0.164124465565     0.051414851236     1.007825032230
         C           -0.669145210645     0.288323717259     1.832116500765    12.000000000000
         H           -0.551175865280     1.409682737173    -0.004249505640     1.007825032230
         H           -1.470361037179    -0.064975674368    -0.138619774229     1.007825032230
         H           -0.644231158936     1.259196437292     2.280128906846     1.007825032230
         H           -1.570335921468    -0.193385276422     2.147815605341     1.007825032230
         H            0.155077264102    -0.271869365437     2.217454343464     1.007825032230

  Running in c1 symmetry.

  Rotational constants: A =      0.79465  B =      0.12053  C =      0.11330 [cm^-1]
  Rotational constants: A =  23823.11800  B =   3613.27873  C =   3396.61204 [MHz]
  Nuclear repulsion =  131.140762140388773

  Charge       = 0
  Multiplicity = 1
  Electrons    = 34
  Nalpha       = 17
  Nbeta        = 17

  ==> Algorithm <==

  SCF Algorithm Type is DIRECT.
  DIIS enabled.
  MOM disabled.
  Fractional occupation disabled.
  Guess Type is READ.
  Energy threshold   = 1.00e-08
  Density threshold  = 1.00e-08
  Integral threshold = 1.00e-08

  ==> Primary Basis <==

  -AO BASIS SET INFORMATION:
    Name                   = 6-31+G*
    Blend                  = 6-31+G*
    Total number of shells = 52
    Number of primitives   = 108
    Number of AO           = 96
    Number of SO           = 96
    Maximum AM             = 2
    Spherical Harmonics    = FALSE

  -Contraction Scheme:
    Atom   Type   All Primitives // Shells:
   ------ ------ --------------------------
       1     C     11s 5p 1d // 4s 3p 1d 
       2     C     11s 5p 1d // 4s 3p 1d 
       3     H     4s // 2s 
       4     H     4s // 2s 
       5     H     4s // 2s 
       6     C     11s 5p 1d // 4s 3p 1d 
       7     H     4s // 2s 
       8     H     4s // 2s 
       9     C     11s 5p 1d // 4s 3p 1d 
      10     H     4s // 2s 
      11     H     4s // 2s 
      12     H     4s // 2s 
      13     H     4s // 2s 
      14     H     4s // 2s 

   => Loading Basis Set <=

    Name: (6-31+G* AUX)
    Role: JKFIT
    Keyword: DF_BASIS_SCF
    atoms 1-2, 6, 9       entry C          line   194 file /Users/blink/psi4conda/share/psi4/basis/heavy-aug-cc-pvdz-jkfit.gbs 
    atoms 3-5, 7-8, 10-14 entry H          line   116 file /Users/blink/psi4conda/share/psi4/basis/heavy-aug-cc-pvdz-jkfit.gbs 

   => Loading Basis Set <=

    Name: 6-31+G*
    Role: ORBITAL
    Keyword: BASIS
    atoms 1-2, 6, 9       entry C          line   119 file /Users/blink/psi4conda/share/psi4/basis/6-31pgs.gbs 
    atoms 3-5, 7-8, 10-14 entry H          line    46 file /Users/blink/psi4conda/share/psi4/basis/6-31pgs.gbs 

  Reading orbitals from file /tmp/butane_1.default.26831.180.npy, no projection.

  Starting with a DF guess...

  ==> Integral Setup <==

  DFHelper Memory: AOs need 0.049 GiB; user supplied 0.698 GiB. 
  Using in-core AOs.

  ==> MemDFJK: Density-Fitted J/K Matrices <==

    J tasked:                   Yes
    K tasked:                   Yes
    wK tasked:                   No
    OpenMP threads:               4
    Memory [MiB]:               715
    Algorithm:                 Core
    Schwarz Cutoff:           1E-08
    Mask sparsity (%):       2.5391
    Fitting Condition:        1E-10

   => Auxiliary Basis Set <=

  -AO BASIS SET INFORMATION:
    Name                   = (6-31+G* AUX)
    Blend                  = HEAVY-AUG-CC-PVDZ-JKFIT
    Total number of shells = 202
    Number of primitives   = 202
    Number of AO           = 654
    Number of SO           = 654
    Maximum AM             = 3
    Spherical Harmonics    = FALSE

  -Contraction Scheme:
    Atom   Type   All Primitives // Shells:
   ------ ------ --------------------------
       1     C     11s 8p 6d 3f // 11s 8p 6d 3f 
       2     C     11s 8p 6d 3f // 11s 8p 6d 3f 
       3     H     4s 3p 2d // 4s 3p 2d 
       4     H     4s 3p 2d // 4s 3p 2d 
       5     H     4s 3p 2d // 4s 3p 2d 
       6     C     11s 8p 6d 3f // 11s 8p 6d 3f 
       7     H     4s 3p 2d // 4s 3p 2d 
       8     H     4s 3p 2d // 4s 3p 2d 
       9     C     11s 8p 6d 3f // 11s 8p 6d 3f 
      10     H     4s 3p 2d // 4s 3p 2d 
      11     H     4s 3p 2d // 4s 3p 2d 
      12     H     4s 3p 2d // 4s 3p 2d 
      13     H     4s 3p 2d // 4s 3p 2d 
      14     H     4s 3p 2d // 4s 3p 2d 

  Minimum eigenvalue in the overlap matrix is 4.9358065209E-05.
  Reciprocal condition number of the overlap matrix is 4.8842243755E-06.
    Using symmetric orthogonalization.

  ==> Pre-Iterations <==

  SCF Guess: Orbitals guess was supplied from a previous computation.

   -------------------------------------------------------
    Irrep   Nso     Nmo     Nalpha   Nbeta   Ndocc  Nsocc
   -------------------------------------------------------
     A         96      96      17      17      17       0
   -------------------------------------------------------
    Total      96      96      17      17      17       0
   -------------------------------------------------------

  ==> Iterations <==

                           Total Energy        Delta E     RMS |[F,P]|

   @DF-RHF iter   0:  -157.03667190615138   -1.57037e+02   2.61100e-03 
   @DF-RHF iter   1:  -157.29138765198701   -2.54716e-01   2.74668e-04 DIIS/ADIIS
   @DF-RHF iter   2:  -157.29189115596597   -5.03504e-04   6.73925e-05 DIIS
   @DF-RHF iter   3:  -157.29192174080924   -3.05848e-05   2.39476e-05 DIIS
   @DF-RHF iter   4:  -157.29192503476969   -3.29396e-06   4.37071e-06 DIIS
   @DF-RHF iter   5:  -157.29192521806686   -1.83297e-07   8.85873e-07 DIIS
   @DF-RHF iter   6:  -157.29192522643666   -8.36980e-09   2.45779e-07 DIIS
   @DF-RHF iter   7:  -157.29192522692227   -4.85613e-10   5.71378e-08 DIIS
   @DF-RHF iter   8:  -157.29192522695740   -3.51292e-11   1.03082e-08 DIIS
   @DF-RHF iter   9:  -157.29192522695891   -1.50635e-12   2.38197e-09 DIIS

  DF guess converged.

  ==> DirectJK: Integral-Direct J/K Matrices <==

    J tasked:                  Yes
    K tasked:                  Yes
    wK tasked:                  No
    Integrals threads:           4
    Screening Type:           CSAM
    Screening Cutoff:        1E-08
    Incremental Fock:           No

   @RHF iter  10:  -157.29192824503372   -1.57292e+02   3.50043e-06 DIIS
   @RHF iter  11:  -157.29192829827147   -5.32378e-08   6.60896e-07 DIIS
   @RHF iter  12:  -157.29192830084614   -2.57467e-09   8.76043e-08 DIIS
   @RHF iter  13:  -157.29192830090648   -6.03393e-11   3.13062e-08 DIIS
   @RHF iter  14:  -157.29192830091318   -6.70752e-12   4.75291e-09 DIIS
  Energy and wave function converged.


  ==> Post-Iterations <==

    Orbital Energies [Eh]
    ---------------------

    Doubly Occupied:                                                      

       1A    -11.211029     2A    -11.210415     3A    -11.202675  
       4A    -11.202234     5A     -1.071005     6A     -0.983031  
       7A     -0.869243     8A     -0.796190     9A     -0.646706  
      10A     -0.586085    11A     -0.579214    12A     -0.574166  
      13A     -0.514385    14A     -0.507924    15A     -0.469725  
      16A     -0.465915    17A     -0.453109  

    Virtual:                                                              

      18A      0.087673    19A      0.092497    20A      0.101052  
      21A      0.112980    22A      0.118818    23A      0.133303  
      24A      0.138091    25A      0.148866    26A      0.159433  
      27A      0.160265    28A      0.173978    29A      0.179970  
      30A      0.212323    31A      0.228272    32A      0.243129  
      33A      0.268233    34A      0.335324    35A      0.361793  
      36A      0.366129    37A      0.382958    38A      0.398654  
      39A      0.415676    40A      0.450772    41A      0.459518  
      42A      0.465152    43A      0.467459    44A      0.485489  
      45A      0.514784    46A      0.528572    47A      0.826760  
      48A      0.836879    49A      0.844222    50A      0.866885  
      51A      0.874394    52A      0.938159    53A      0.960558  
      54A      0.968412    55A      0.993452    56A      1.019811  
      57A      1.055549    58A      1.101706    59A      1.215680  
      60A      1.228858    61A      1.235253    62A      1.268583  
      63A      1.275102    64A      1.284807    65A      1.355472  
      66A      1.372197    67A      1.401839    68A      1.421963  
      69A      1.447866    70A      1.572077    71A      1.697209  
      72A      1.731831    73A      1.740430    74A      1.931575  
      75A      2.008023    76A      2.154295    77A      2.194071  
      78A      2.228112    79A      2.309080    80A      2.346055  
      81A      2.382317    82A      2.430867    83A      2.547953  
      84A      2.549996    85A      2.689460    86A      2.693955  
      87A      2.740201    88A      2.777497    89A      2.858353  
      90A      2.966262    91A      3.046378    92A      3.121464  
      93A      4.613144    94A      4.712249    95A      4.844978  
      96A      5.009196  

    Final Occupation by Irrep:
              A 
    DOCC [    17 ]
    NA   [    17 ]
    NB   [    17 ]

  @RHF Final Energy:  -157.29192830091318

   => Energetics <=

    Nuclear Repulsion Energy =            131.1407621403887731
    One-Electron Energy =                -470.1792802804147868
    Two-Electron Energy =                 181.7465898391128007
    Total Energy =                       -157.2919283009131846

Computation Completed


Properties will be evaluated at   0.000000,   0.000000,   0.000000 [a0]

Properties computed using the SCF density matrix


 Multipole Moments:

 ------------------------------------------------------------------------------------
     Multipole            Electronic (a.u.)      Nuclear  (a.u.)        Total (a.u.)
 ------------------------------------------------------------------------------------

 L = 1.  Multiply by 2.5417464519 to convert [e a0] to [Debye]
 Dipole X            :          0.0237266           -0.0225534            0.0011731
 Dipole Y            :          0.0400125           -0.0371698            0.0028428
 Dipole Z            :         -0.0006725            0.0038502            0.0031777
 Magnitude           :                                                    0.0044222

 ------------------------------------------------------------------------------------

*** tstop() called on Barrys-MacBook-Pro.local at Tue May  7 21:07:28 2024
Module time:
	user time   =       7.89 seconds =       0.13 minutes
	system time =       0.13 seconds =       0.00 minutes
	total time  =          2 seconds =       0.03 minutes
Total time:
	user time   =     639.08 seconds =      10.65 minutes
	system time =      14.91 seconds =       0.25 minutes
	total time  =      93434 seconds =    1557.23 minutes

*** tstart() called on Barrys-MacBook-Pro.local
*** at Tue May  7 21:07:28 2024


         ------------------------------------------------------------
                                   SCF GRAD                          
                          Rob Parrish, Justin Turney,                
                       Andy Simmonett, and Alex Sokolov              
         ------------------------------------------------------------

  ==> Geometry <==

    Molecular point group: c1
    Full point group: C1

    Geometry (in Angstrom), charge = 0, multiplicity = 1:

       Center              X                  Y                   Z               Mass       
    ------------   -----------------  -----------------  -----------------  -----------------
         C            0.634081674473    -0.333355221775    -1.828440391465    12.000000000000
         C            0.634081674473    -0.333355221775    -0.290613326251    12.000000000000
         H            0.634081674473     0.671523751168    -2.195627927428     1.007825032230
         H            1.499743687127    -0.835285510829    -2.208877225307     1.007825032230
         H           -0.236302834178    -0.832335939622    -2.199436393882     1.007825032230
         C           -0.596997636111     0.381716666563     0.286592287062    12.000000000000
         H            0.641660560126    -1.346324652849     0.054104140690     1.007825032230
         H            1.517785857789     0.164124465565     0.051414851236     1.007825032230
         C           -0.669145210645     0.288323717259     1.832116500765    12.000000000000
         H           -0.551175865280     1.409682737173    -0.004249505640     1.007825032230
         H           -1.470361037179    -0.064975674368    -0.138619774229     1.007825032230
         H           -0.644231158936     1.259196437292     2.280128906846     1.007825032230
         H           -1.570335921468    -0.193385276422     2.147815605341     1.007825032230
         H            0.155077264102    -0.271869365437     2.217454343464     1.007825032230

  Nuclear repulsion =  131.140762140388773

  ==> Basis Set <==

  -AO BASIS SET INFORMATION:
    Name                   = 6-31+G*
    Blend                  = 6-31+G*
    Total number of shells = 52
    Number of primitives   = 108
    Number of AO           = 96
    Number of SO           = 96
    Maximum AM             = 2
    Spherical Harmonics    = FALSE

  -Contraction Scheme:
    Atom   Type   All Primitives // Shells:
   ------ ------ --------------------------
       1     C     11s 5p 1d // 4s 3p 1d 
       2     C     11s 5p 1d // 4s 3p 1d 
       3     H     4s // 2s 
       4     H     4s // 2s 
       5     H     4s // 2s 
       6     C     11s 5p 1d // 4s 3p 1d 
       7     H     4s // 2s 
       8     H     4s // 2s 
       9     C     11s 5p 1d // 4s 3p 1d 
      10     H     4s // 2s 
      11     H     4s // 2s 
      12     H     4s // 2s 
      13     H     4s // 2s 
      14     H     4s // 2s 

  ==> DirectJKGrad: Integral-Direct SCF Gradients <==

    Gradient:                    1
    J tasked:                  Yes
    K tasked:                  Yes
    wK tasked:                  No
    Integrals threads:           4
    Schwarz Cutoff:          1E-08


  -Nuclear Gradient:
     Atom            X                  Y                   Z
    ------   -----------------  -----------------  -----------------
       1       -1.162796942817     0.645280161603     5.795436205721
       2       -3.767425519698     2.093002148922    -0.843520748940
       3       -0.157926023689    -1.768072564631     1.259989270851
       4       -1.642355653392     0.949345169170     1.139504208909
       5        1.448517615230     1.010341868362     1.269006119078
       6        3.579070401862    -2.389601084447     0.685952600606
       7       -0.370511665854     2.207740902735    -0.653147944421
       8       -2.097895916879    -0.797530474806    -0.665815199907
       9        1.347095298696    -0.367714421901    -5.633533125513
      10        0.247519971866    -2.257581786069     0.549768750593
      11        2.083679952703     0.660442296813     0.799911859693
      12        0.074458297657    -1.786706572880    -1.285446231711
      13        1.746470309489     0.834161492367    -1.048710936705
      14       -1.327900125174     0.966892864761    -1.369394828255


  -Core Hamiltonian Gradient:
     Atom            X                  Y                   Z
    ------   -----------------  -----------------  -----------------
       1        2.207298675203    -1.216597171977    -9.359569074626
       2        6.011889639479    -3.249157686815    -0.097965891752
       3        0.269528793268     4.559641347315    -2.710819404835
       4        4.096154196304    -2.374208458215    -2.518546962848
       5       -3.809667640699    -2.494151987319    -2.745197254071
       6       -5.466945292606     3.528868776493     0.944500656717
       7        0.568671068803    -5.490820146167     1.645996590517
       8        5.035776377533     2.285169204102     1.635095899246
       9       -2.763910880147     0.976155655007     8.465669068856
      10       -0.232052147889     5.631601969594    -1.429140753632
      11       -5.030589222921    -1.982886975906    -2.116076046965
      12       -0.105457149219     4.516195379240     2.948161269044
      13       -4.356362227707    -2.146111971612     2.348402158916
      14        3.575665810599    -2.543697933741     2.989489745434


  -Overlap Gradient:
     Atom            X                  Y                   Z
    ------   -----------------  -----------------  -----------------
       1        0.018453846623    -0.011733198396    -0.126991685641
       2        0.053990184174    -0.033878882849     0.096218108396
       3        0.001360560619    -0.165949251525     0.059427981383
       4       -0.145159563446     0.084301459479     0.062576214433
       5        0.144636242061     0.081491657930     0.060597367448
       6       -0.066388354150     0.053979305428    -0.136658586653
       7        0.002682900357     0.167938021956    -0.056085936037
       8       -0.144299474807    -0.086316544218    -0.054531437932
       9       -0.007749236390    -0.006864818535     0.171301693472
      10       -0.012530007819    -0.173770534332     0.050854543584
      11        0.145648947938     0.078683254868     0.074481366984
      12       -0.003978526119    -0.162467329809    -0.078954786034
      13        0.151060644634     0.080876853906    -0.056935833627
      14       -0.137728163675     0.093710006097    -0.065299009777


  -Coulomb Gradient:
     Atom            X                  Y                   Z
    ------   -----------------  -----------------  -----------------
       1       -1.049280872113     0.574503733196     3.488501189857
       2       -2.176569847871     1.116911341195     0.986826071701
       3       -0.111424273899    -2.906378176053     1.494038192269
       4       -2.552658678573     1.482142346437     1.423854727743
       5        2.460710576089     1.540745961063     1.519827721578
       6        1.824097527419    -1.095174385316    -1.684524978056
       7       -0.200665746941     3.397962145163    -1.032339334498
       8       -3.038776213937    -1.542514556872    -1.008788696663
       9        1.418004671158    -0.617275569629    -2.747042389507
      10       -0.019060757050    -3.490325738539     0.913258659053
      11        3.046595667351     1.371580306064     1.364926058255
      12        0.028210283365    -2.840686965086    -1.715194630530
      13        2.713333011682     1.367192565823    -1.337061332464
      14       -2.342515346679     1.641316992554    -1.666281258736


  -Exchange Gradient:
     Atom            X                  Y                   Z
    ------   -----------------  -----------------  -----------------
       1       -0.014607629077     0.008509534353     0.182880467923
       2       -0.106124323214     0.064123831183    -0.125330377260
       3       -0.001443430193     0.270003105095    -0.096121614495
       4        0.235075226087    -0.136679067911    -0.102128417574
       5       -0.234585556514    -0.133151753191    -0.098171390699
       6        0.113415653303    -0.086599981473     0.176604372355
       7       -0.003723792140    -0.271655806249     0.089383994280
       8        0.233761423454     0.139291303620     0.087051765389
       9        0.007377548857     0.013107155157    -0.238851330513
      10        0.020296246677     0.278831331855    -0.078782514031
      11       -0.233780056211    -0.126906194739    -0.116931642936
      12        0.006401284610     0.263674869630     0.125344830580
      13       -0.245143037314    -0.130851181262     0.089614095993
      14        0.223080441675    -0.151697146069     0.105437760986


  -Total Gradient:
     Atom            X                  Y                   Z
    ------   -----------------  -----------------  -----------------
       1       -0.000932922181    -0.000036941220    -0.019742896765
       2        0.015760132870    -0.008999248365     0.016227162146
       3        0.000095626105    -0.010755539798     0.006514425174
       4       -0.008944473018     0.004901448960     0.005259770664
       5        0.009611236167     0.005275746845     0.006062563334
       6       -0.016750064172     0.011472630685    -0.014125935032
       7       -0.003547235775     0.011165117439    -0.006192630159
       8       -0.011433804637    -0.001901068174    -0.006987669867
       9        0.000817402175    -0.002591999902     0.017543916795
      10        0.004173305785    -0.011244757491     0.005958685567
      11        0.011555288860     0.000912687101     0.006311595030
      12       -0.000365809707    -0.009990618904    -0.006089548651
      13        0.009358700783     0.005267759221    -0.004691847888
      14       -0.009397383254     0.006524783602    -0.006047590348


*** tstop() called on Barrys-MacBook-Pro.local at Tue May  7 21:07:29 2024
Module time:
	user time   =       3.34 seconds =       0.06 minutes
	system time =       0.03 seconds =       0.00 minutes
	total time  =          1 seconds =       0.02 minutes
Total time:
	user time   =     642.42 seconds =      10.71 minutes
	system time =      14.94 seconds =       0.25 minutes
	total time  =      93435 seconds =    1557.25 minutes

    			-----------------------------------------

    			 OPTKING 3.0: for geometry optimizations 

    			     By R.A. King, Bethel University     

    			        with contributions from          

    			    A.V. Copan, J. Cayton, A. Heide      

    			-----------------------------------------

    
	                            ===> Fragment 1 <== 

	 Z (Atomic Numbers)          Masses                          Geom                  
	       6.000000            12.000000          1.19824071 -0.62995007 -3.45525158   
	       6.000000            12.000000          1.19824071 -0.62995007 -0.54917960   
	       1.000000             1.007825          1.19824071  1.26899598 -4.14913546   
	       1.000000             1.007825          2.83410483 -1.57846085 -4.17417300   
	       1.000000             1.007825         -0.44654764 -1.57288697 -4.15633241   
	       6.000000            12.000000         -1.12816203  0.72133996  0.54158093   
	       1.000000             1.007825          1.21256272 -2.54418487  0.10224201   
	       1.000000             1.007825          2.86819959  0.31015029  0.09715999   
	       6.000000            12.000000         -1.26450119  0.54485286  3.46219842   
	       1.000000             1.007825         -1.04157143  2.66391430 -0.00803040   
	       1.000000             1.007825         -2.77857967 -0.12278623 -0.26195341   
	       1.000000             1.007825         -1.21742045  2.37953640  4.30881916   
	       1.000000             1.007825         -2.96750482 -0.36544521  4.05878326   
	       1.000000             1.007825          0.29305356 -0.51375864  4.19038140   

	 - Coordinate -           - BOHR/RAD -       - ANG/DEG -
	 R(1,2)           =         2.906072           1.537827
	 R(1,3)           =         2.021749           1.069864
	 R(1,4)           =         2.023011           1.070531
	 R(1,5)           =         2.021379           1.069668
	 R(2,6)           =         2.903083           1.536246
	 R(2,7)           =         2.022091           1.070044
	 R(2,8)           =         2.022451           1.070235
	 R(6,9)           =         2.929120           1.550023
	 R(6,10)          =         2.020684           1.069300
	 R(6,11)          =         2.020419           1.069160
	 R(9,12)          =         2.021150           1.069546
	 R(9,13)          =         2.021083           1.069511
	 R(9,14)          =         2.019130           1.068478
	 B(1,2,6)         =         1.955975         112.069119
	 B(1,2,7)         =         1.898799         108.793152
	 B(1,2,8)         =         1.896085         108.637672
	 B(2,1,3)         =         1.921128         110.072543
	 B(2,1,4)         =         1.934108         110.816248
	 B(2,1,5)         =         1.924989         110.293726
	 B(2,6,9)         =         1.964800         112.574762
	 B(2,6,10)        =         1.886978         108.115903
	 B(2,6,11)        =         1.886729         108.101618
	 B(3,1,4)         =         1.894853         108.567081
	 B(3,1,5)         =         1.895588         108.609166
	 B(4,1,5)         =         1.892315         108.421676
	 B(6,2,7)         =         1.902099         108.982229
	 B(6,2,8)         =         1.902071         108.980648
	 B(6,9,12)        =         1.941087         111.216114
	 B(6,9,13)        =         1.939796         111.142112
	 B(6,9,14)        =         1.934009         110.810570
	 B(7,2,8)         =         1.908410         109.343822
	 B(9,6,10)        =         1.908288         109.336847
	 B(9,6,11)        =         1.910658         109.472648
	 B(10,6,11)       =         1.905489         109.176463
	 B(12,9,13)       =         1.880557         107.747976
	 B(12,9,14)       =         1.882716         107.871676
	 B(13,9,14)       =         1.883256         107.902604
	 D(1,2,6,9)       =         3.059758         175.311241
	 D(1,2,6,10)      =        -1.113589         -63.803952
	 D(1,2,6,11)      =         0.947120          54.265962
	 D(2,6,9,12)      =         2.083590         119.380891
	 D(2,6,9,13)      =        -2.104377        -120.571894
	 D(2,6,9,14)      =        -0.010481          -0.600514
	 D(3,1,2,6)       =         1.044577          59.849856
	 D(3,1,2,7)       =         3.149074         180.428670
	 D(3,1,2,8)       =        -1.058066         -60.622742
	 D(4,1,2,6)       =         3.140824         179.955978
	 D(4,1,2,7)       =        -1.037864         -59.465208
	 D(4,1,2,8)       =         1.038181          59.483379
	 D(5,1,2,6)       =        -1.046766         -59.975260
	 D(5,1,2,7)       =         1.057732          60.603554
	 D(5,1,2,8)       =         3.133776         179.552142
	 D(7,2,6,9)       =         0.957176          54.842145
	 D(7,2,6,10)      =         3.067014         175.726952
	 D(7,2,6,11)      =        -1.155463         -66.203135
	 D(8,2,6,9)       =        -1.124262         -64.415491
	 D(8,2,6,10)      =         0.985576          56.469317
	 D(8,2,6,11)      =         3.046284         174.539230
	 D(10,6,9,12)     =        -0.014001          -0.802198
	 D(10,6,9,13)     =         2.081218         119.245017
	 D(10,6,9,14)     =        -2.108072        -120.783603
	 D(11,6,9,12)     =        -2.100693        -120.360859
	 D(11,6,9,13)     =        -0.005474          -0.313644
	 D(11,6,9,14)     =         2.088421         119.657736


	        --- Internal Coordinate Step in ANG or DEG, aJ/ANG or AJ/DEG ---
	-------------------------------------------------------------------------------
	           Coordinate      Previous         Force          Change          New 
	           ----------      --------        ------          ------        ------
	               R(1,2)       1.53783       -0.01570       -0.00555       1.53228
	               R(1,3)       1.06986        0.10165        0.01351       1.08337
	               R(1,4)       1.07053        0.09392        0.01228       1.08281
	               R(1,5)       1.06967        0.10203        0.01357       1.08324
	               R(2,6)       1.53625       -0.00183       -0.00230       1.53395
	               R(2,7)       1.07004        0.10372        0.01382       1.08387
	               R(2,8)       1.07023        0.10346        0.01378       1.08401
	               R(6,9)       1.55002       -0.00611       -0.00399       1.54603
	              R(6,10)       1.06930        0.10094        0.01342       1.08272
	              R(6,11)       1.06916        0.10159        0.01352       1.08268
	              R(9,12)       1.06955        0.09580        0.01261       1.08215
	              R(9,13)       1.06951        0.09593        0.01263       1.08214
	              R(9,14)       1.06848        0.10588        0.01421       1.08269
	             B(1,2,6)     112.06912        0.00002        0.35299     112.42211
	             B(1,2,7)     108.79315        0.00006        0.66968     109.46283
	             B(1,2,8)     108.63767        0.00007        0.71248     109.35015
	             B(2,1,3)     110.07254        0.00021        1.00815     111.08070
	             B(2,1,4)     110.81625        0.00007        0.11308     110.92933
	             B(2,1,5)     110.29373        0.00014        0.74042     111.03415
	             B(2,6,9)     112.57476        0.00002        0.33836     112.91312
	            B(2,6,10)     108.11590        0.00006        0.71927     108.83518
	            B(2,6,11)     108.10162        0.00006        0.79136     108.89298
	             B(3,1,4)     108.56708       -0.00015       -0.67661     107.89047
	             B(3,1,5)     108.60917       -0.00017       -0.75725     107.85191
	             B(4,1,5)     108.42168       -0.00011       -0.51029     107.91138
	             B(6,2,7)     108.98223        0.00002        0.30568     109.28790
	             B(6,2,8)     108.98065        0.00001        0.22614     109.20679
	            B(6,9,12)     111.21611        0.00010        0.37472     111.59084
	            B(6,9,13)     111.14211        0.00009        0.37252     111.51463
	            B(6,9,14)     110.81057        0.00011        0.49044     111.30101
	             B(7,2,8)     109.34382       -0.00018       -2.38409     106.95973
	            B(9,6,10)     109.33685        0.00003        0.29816     109.63501
	            B(9,6,11)     109.47265        0.00003        0.29616     109.76881
	           B(10,6,11)     109.17646       -0.00020       -2.58379     106.59267
	           B(12,9,13)     107.74798       -0.00009       -0.32790     107.42008
	           B(12,9,14)     107.87168       -0.00011       -0.49457     107.37710
	           B(13,9,14)     107.90260       -0.00011       -0.49446     107.40815
	           D(1,2,6,9)     175.31124        0.00003        1.87528     177.18652
	          D(1,2,6,10)     -63.80395        0.00011        2.97137     -60.83259
	          D(1,2,6,11)      54.26596       -0.00006        0.72786      54.99382
	          D(2,6,9,12)     119.38089       -0.00001       -0.05696     119.32393
	          D(2,6,9,13)    -120.57189        0.00000        0.03374    -120.53815
	          D(2,6,9,14)      -0.60051       -0.00000       -0.01268      -0.61320
	           D(3,1,2,6)      59.84986       -0.00000       -0.09150      59.75835
	           D(3,1,2,7)     180.42867        0.00008        0.98457     181.41324
	           D(3,1,2,8)     -60.62274       -0.00007       -1.09174     -61.71449
	           D(4,1,2,6)     179.95598       -0.00001       -0.20318     179.75279
	           D(4,1,2,7)     -59.46521        0.00007        0.87289     -58.59232
	           D(4,1,2,8)      59.48338       -0.00007       -1.20343      58.27995
	           D(5,1,2,6)     -59.97526       -0.00001       -0.28205     -60.25731
	           D(5,1,2,7)      60.60355        0.00007        0.79402      61.39758
	           D(5,1,2,8)     179.55214       -0.00008       -1.28229     178.26985
	           D(7,2,6,9)      54.84214       -0.00008        0.58990      55.43204
	          D(7,2,6,10)     175.72695        0.00001        1.68599     177.41294
	          D(7,2,6,11)     -66.20313       -0.00017       -0.55752     -66.76066
	           D(8,2,6,9)     -64.41549        0.00013        3.15663     -61.25886
	          D(8,2,6,10)      56.46932        0.00021        4.25272      60.72204
	          D(8,2,6,11)     174.53923        0.00004        2.00921     176.54844
	         D(10,6,9,12)      -0.80220       -0.00011       -1.40387      -2.20607
	         D(10,6,9,13)     119.24502       -0.00010       -1.31317     117.93185
	         D(10,6,9,14)    -120.78360       -0.00010       -1.35959    -122.14320
	         D(11,6,9,12)    -120.36086        0.00010        1.38476    -118.97610
	         D(11,6,9,13)      -0.31364        0.00011        1.47547       1.16183
	         D(11,6,9,14)     119.65774        0.00011        1.42905     121.08678
	-------------------------------------------------------------------------------

	                                 ==> Convergence Check <==                                  
    
	Measures of convergence in internal coordinates in au.
    
	Criteria marked as inactive (o), active & met (*), and active & unmet ( ).

	----------------------------------------------------------------------------------------------
	   Step    Total Energy     Delta E     Max Force     RMS Force      Max Disp      RMS Disp   
	----------------------------------------------------------------------------------------------
	  Convergence Criteria     1.00e-06 *    3.00e-04 *             o    1.20e-03 *             o
	----------------------------------------------------------------------------------------------
	     2    -157.29192830   -6.33e-02      1.29e-02      4.97e-03 o    7.42e-02      2.26e-02 o  ~
	----------------------------------------------------------------------------------------------

Next Geometry in Ang 
	Fragment 1 (Ang)

	    C   0.6385027337  -0.3241375751  -1.8270491613
	    C   0.6249835758  -0.3439045939  -0.2949574439
	    H   0.6470220315   0.6916584555  -2.2035855445
	    H   1.5152512128  -0.8292021544  -2.2126749128
	    H  -0.2360307226  -0.8203430358  -2.2300171619
	    C  -0.6015305266   0.3689379337   0.2885774268
	    H   0.6418647901  -1.3702177583   0.0531341404
	    H   1.5248595116   0.1314446652   0.0783367680
	    C  -0.6626385240   0.2958787696   1.8316747417
	    H  -0.5865018307   1.4047469643  -0.0263005721
	    H  -1.4963097910  -0.0698760546  -0.1345202479
	    H  -0.6390355150   1.2813172445   2.2782302957
	    H  -1.5673899574  -0.1916973543   2.1703789130
	    H   0.1749157406  -0.2609245945   2.2325348502


    Structure for next step:
    Molecular point group: c1
    Full point group: C1

    Geometry (in Angstrom), charge = 0, multiplicity = 1:

    C       
    C             1    1.532279
    H             1    1.083371      2  111.080697
    H             1    1.082814      2  110.929332      3  119.994440
    H             1    1.083241      2  111.034146      3 -120.015663
    C             2    1.533947      1  112.422109      3   59.758353
    H             2    1.083869      1  109.462833      6  121.654887
    H             2    1.084012      1  109.350147      6 -121.472840
    C             6    1.546034      2  112.913122      1    dihedral
    H             6    1.082716      2  108.835176      9  121.980895
    H             6    1.082682      2  108.892979      9 -122.192701
    H             9    1.082154      6  111.590837     10   -2.206072
    H             9    1.082140      6  111.514627     10  117.931850
    H             9    1.082689      6  111.301013     10 -122.143195

    dihedral  =  177.1865191497


Scratch directory: /tmp/
gradient() will perform analytic gradient computation.
   => Libint2 <=

    Primary   basis highest AM E, G, H:  5, 4, 3
    Auxiliary basis highest AM E, G, H:  6, 5, 4
    Onebody   basis highest AM E, G, H:  6, 5, 4
    Solid Harmonics ordering:            Gaussian

*** tstart() called on Barrys-MacBook-Pro.local
*** at Tue May  7 21:07:29 2024

   => Loading Basis Set <=

    Name: 6-31+G*
    Role: ORBITAL
    Keyword: BASIS
    atoms 1-2, 6, 9       entry C          line   119 file /Users/blink/psi4conda/share/psi4/basis/6-31pgs.gbs 
    atoms 3-5, 7-8, 10-14 entry H          line    46 file /Users/blink/psi4conda/share/psi4/basis/6-31pgs.gbs 


         ---------------------------------------------------------
                                   SCF
               by Justin Turney, Rob Parrish, Andy Simmonett
                          and Daniel G. A. Smith
                              RHF Reference
                        4 Threads,    953 MiB Core
         ---------------------------------------------------------

  ==> Geometry <==

    Molecular point group: c1
    Full point group: C1

    Geometry (in Angstrom), charge = 0, multiplicity = 1:

       Center              X                  Y                   Z               Mass       
    ------------   -----------------  -----------------  -----------------  -----------------
         C            0.624643666766    -0.343301493723    -1.828031734076    12.000000000000
         C            0.624643666766    -0.343301493723    -0.295752864863    12.000000000000
         H            0.624643666766     0.667565113056    -2.217701473071     1.007825032230
         H            1.500566096823    -0.848902221098    -2.214830320057     1.007825032230
         H           -0.250822955914    -0.849071542695    -2.216833335098     1.007825032230
         C           -0.600361252930     0.370860947807     0.289336198420    12.000000000000
         H            0.649847832872    -1.364924761100     0.065387118320     1.007825032230
         H            1.525298808856     0.141357622769     0.063424030943     1.007825032230
         C           -0.647577325435     0.317477197094     1.833726683266    12.000000000000
         H           -0.593415106747     1.402569518719    -0.038998294746     1.007825032230
         H           -1.496543926440    -0.077885511994    -0.120154364434     1.007825032230
         H           -0.625130355155     1.308719997261     2.267306892017     1.007825032230
         H           -1.546809743155    -0.170215227728     2.186661955159     1.007825032230
         H            0.196306285375    -0.229873209747     2.234331154660     1.007825032230

  Running in c1 symmetry.

  Rotational constants: A =      0.78695  B =      0.12033  C =      0.11297 [cm^-1]
  Rotational constants: A =  23592.05800  B =   3607.30989  C =   3386.63238 [MHz]
  Nuclear repulsion =  130.638308485244551

  Charge       = 0
  Multiplicity = 1
  Electrons    = 34
  Nalpha       = 17
  Nbeta        = 17

  ==> Algorithm <==

  SCF Algorithm Type is DIRECT.
  DIIS enabled.
  MOM disabled.
  Fractional occupation disabled.
  Guess Type is READ.
  Energy threshold   = 1.00e-08
  Density threshold  = 1.00e-08
  Integral threshold = 1.00e-08

  ==> Primary Basis <==

  -AO BASIS SET INFORMATION:
    Name                   = 6-31+G*
    Blend                  = 6-31+G*
    Total number of shells = 52
    Number of primitives   = 108
    Number of AO           = 96
    Number of SO           = 96
    Maximum AM             = 2
    Spherical Harmonics    = FALSE

  -Contraction Scheme:
    Atom   Type   All Primitives // Shells:
   ------ ------ --------------------------
       1     C     11s 5p 1d // 4s 3p 1d 
       2     C     11s 5p 1d // 4s 3p 1d 
       3     H     4s // 2s 
       4     H     4s // 2s 
       5     H     4s // 2s 
       6     C     11s 5p 1d // 4s 3p 1d 
       7     H     4s // 2s 
       8     H     4s // 2s 
       9     C     11s 5p 1d // 4s 3p 1d 
      10     H     4s // 2s 
      11     H     4s // 2s 
      12     H     4s // 2s 
      13     H     4s // 2s 
      14     H     4s // 2s 

   => Loading Basis Set <=

    Name: (6-31+G* AUX)
    Role: JKFIT
    Keyword: DF_BASIS_SCF
    atoms 1-2, 6, 9       entry C          line   194 file /Users/blink/psi4conda/share/psi4/basis/heavy-aug-cc-pvdz-jkfit.gbs 
    atoms 3-5, 7-8, 10-14 entry H          line   116 file /Users/blink/psi4conda/share/psi4/basis/heavy-aug-cc-pvdz-jkfit.gbs 

   => Loading Basis Set <=

    Name: 6-31+G*
    Role: ORBITAL
    Keyword: BASIS
[...]
        Angle 2-7-11:   59.361
        Angle 2-7-12:   67.210
        Angle 2-7-13:   89.912
        Angle 2-7-14:   63.110
        Angle 3-7-4:   35.032
        Angle 3-7-5:   35.019
        Angle 3-7-6:   62.478
        Angle 3-7-8:   55.070
        Angle 3-7-9:   93.057
        Angle 3-7-10:   50.292
        Angle 3-7-11:   67.740
        Angle 3-7-12:   91.319
        Angle 3-7-13:  115.306
        Angle 3-7-14:   91.901
        Angle 4-7-5:   41.168
        Angle 4-7-6:   97.461
        Angle 4-7-8:   69.420
        Angle 4-7-9:  127.393
        Angle 4-7-10:   85.238
        Angle 4-7-11:   98.333
        Angle 4-7-12:  126.296
        Angle 4-7-13:  150.131
        Angle 4-7-14:  121.436
        Angle 5-7-6:   73.730
        Angle 5-7-8:   90.089
        Angle 5-7-9:  106.586
        Angle 5-7-10:   67.778
        Angle 5-7-11:   62.482
        Angle 5-7-12:  100.987
        Angle 5-7-13:  121.394
        Angle 5-7-14:  115.614
        Angle 6-7-8:   66.123
        Angle 6-7-9:   33.355
        Angle 6-7-10:   13.891
        Angle 6-7-11:   25.651
        Angle 6-7-12:   29.468
        Angle 6-7-13:   53.401
        Angle 6-7-14:   43.851
        Angle 8-7-9:   71.658
        Angle 8-7-10:   55.052
        Angle 8-7-11:   90.010
        Angle 8-7-12:   76.586
        Angle 8-7-13:   90.049
        Angle 8-7-14:   55.968
        Angle 9-7-10:   43.094
        Angle 9-7-11:   47.835
        Angle 9-7-12:    7.728
        Angle 9-7-13:   22.922
        Angle 9-7-14:   20.000
        Angle 10-7-11:   34.957
        Angle 10-7-12:   41.058
        Angle 10-7-13:   65.015
        Angle 10-7-14:   47.836
        Angle 11-7-12:   40.705
        Angle 11-7-13:   58.912
        Angle 11-7-14:   64.654
        Angle 12-7-13:   24.051
        Angle 12-7-14:   27.516
        Angle 13-7-14:   34.081
        Angle 1-8-2:   42.304
        Angle 1-8-3:   25.465
        Angle 1-8-4:   25.755
        Angle 1-8-5:   13.407
        Angle 1-8-6:   72.768
        Angle 1-8-7:   66.092
        Angle 1-8-9:  104.878
        Angle 1-8-10:   72.894
        Angle 1-8-11:   61.779
        Angle 1-8-12:  102.203
        Angle 1-8-13:  105.228
        Angle 1-8-14:  126.185
        Angle 2-8-3:   59.690
        Angle 2-8-4:   60.612
        Angle 2-8-5:   28.911
        Angle 2-8-6:   42.391
        Angle 2-8-7:   36.436
        Angle 2-8-9:   67.030
        Angle 2-8-10:   59.332
        Angle 2-8-11:   28.500
        Angle 2-8-12:   67.243
        Angle 2-8-13:   63.166
        Angle 2-8-14:   89.957
        Angle 3-8-4:   41.168
        Angle 3-8-5:   35.020
        Angle 3-8-6:   73.720
        Angle 3-8-7:   90.085
        Angle 3-8-9:  106.581
        Angle 3-8-10:   62.443
        Angle 3-8-11:   67.798
        Angle 3-8-12:  100.980
        Angle 3-8-13:  115.640
        Angle 3-8-14:  121.363
        Angle 4-8-5:   35.033
        Angle 4-8-6:   97.467
        Angle 4-8-7:   69.431
        Angle 4-8-9:  127.436
        Angle 4-8-10:   98.298
        Angle 4-8-11:   85.260
        Angle 4-8-12:  126.328
        Angle 4-8-13:  121.508
        Angle 4-8-14:  150.173
        Angle 5-8-6:   62.484
        Angle 5-8-7:   55.066
        Angle 5-8-9:   93.092
        Angle 5-8-10:   67.712
        Angle 5-8-11:   50.314
        Angle 5-8-12:   91.348
        Angle 5-8-13:   91.958
        Angle 5-8-14:  115.340
        Angle 6-8-7:   66.123
        Angle 6-8-9:   33.368
        Angle 6-8-10:   25.643
        Angle 6-8-11:   13.890
        Angle 6-8-12:   29.485
        Angle 6-8-13:   43.870
        Angle 6-8-14:   53.418
        Angle 7-8-9:   71.707
        Angle 7-8-10:   89.990
        Angle 7-8-11:   55.033
        Angle 7-8-12:   76.627
        Angle 7-8-13:   56.027
        Angle 7-8-14:   90.120
        Angle 9-8-10:   47.840
        Angle 9-8-11:   43.099
        Angle 9-8-12:    7.724
        Angle 9-8-13:   20.007
        Angle 9-8-14:   22.929
        Angle 10-8-11:   34.957
        Angle 10-8-12:   40.715
        Angle 10-8-13:   64.664
        Angle 10-8-14:   58.921
        Angle 11-8-12:   41.068
        Angle 11-8-13:   47.843
        Angle 11-8-14:   65.026
        Angle 12-8-13:   27.521
        Angle 12-8-14:   24.052
        Angle 13-8-14:   34.093
        Angle 1-9-2:   12.576
        Angle 1-9-3:   14.604
        Angle 1-9-4:    9.838
        Angle 1-9-5:   14.600
        Angle 1-9-6:   21.249
        Angle 1-9-7:   32.014
        Angle 1-9-8:   32.009
        Angle 1-9-10:   43.113
        Angle 1-9-11:   43.134
        Angle 1-9-12:  131.853
        Angle 1-9-13:   99.266
        Angle 1-9-14:   99.231
        Angle 2-9-3:   24.069
        Angle 2-9-4:    2.738
        Angle 2-9-5:   24.053
        Angle 2-9-6:   33.825
        Angle 2-9-7:   22.991
        Angle 2-9-8:   22.998
        Angle 2-9-10:   53.664
        Angle 2-9-11:   53.664
        Angle 2-9-12:  144.429
        Angle 2-9-13:   91.955
        Angle 2-9-14:   91.947
        Angle 3-9-4:   21.743
        Angle 3-9-5:   23.878
        Angle 3-9-6:   17.439
        Angle 3-9-7:   46.056
        Angle 3-9-8:   34.511
        Angle 3-9-10:   29.596
        Angle 3-9-11:   45.450
        Angle 3-9-12:  122.569
        Angle 3-9-13:  113.870
        Angle 3-9-14:   93.950
        Angle 4-9-5:   21.744
        Angle 4-9-6:   31.087
        Angle 4-9-7:   24.722
        Angle 4-9-8:   24.705
        Angle 4-9-10:   51.302
        Angle 4-9-11:   51.320
        Angle 4-9-12:  141.691
        Angle 4-9-13:   93.571
        Angle 4-9-14:   93.535
        Angle 5-9-6:   17.403
        Angle 5-9-7:   34.502
        Angle 5-9-8:   46.044
        Angle 5-9-10:   45.410
        Angle 5-9-11:   29.612
        Angle 5-9-12:  122.574
        Angle 5-9-13:   93.993
        Angle 5-9-14:  113.831
        Angle 6-9-7:   50.525
        Angle 6-9-8:   50.549
        Angle 6-9-10:   28.386
        Angle 6-9-11:   28.386
        Angle 6-9-12:  110.604
        Angle 6-9-13:  110.746
        Angle 6-9-14:  110.747
        Angle 7-9-8:   36.635
        Angle 7-9-10:   75.127
        Angle 7-9-11:   59.235
        Angle 7-9-12:  152.086
        Angle 7-9-13:   68.965
        Angle 7-9-14:   98.636
        Angle 8-9-10:   59.266
        Angle 8-9-11:   75.143
        Angle 8-9-12:  152.105
        Angle 8-9-13:   98.621
        Angle 8-9-14:   68.950
        Angle 10-9-11:   47.817
        Angle 10-9-12:   94.411
        Angle 10-9-13:  139.119
        Angle 10-9-14:   95.719
        Angle 11-9-12:   94.418
        Angle 11-9-13:   95.712
        Angle 11-9-14:  139.119
        Angle 12-9-13:  108.236
        Angle 12-9-14:  108.236
        Angle 13-9-14:  108.176
        Angle 1-10-2:   33.368
        Angle 1-10-3:   22.929
        Angle 1-10-4:    7.725
        Angle 1-10-5:   20.007
        Angle 1-10-6:   67.030
        Angle 1-10-7:   43.099
        Angle 1-10-8:   47.840
        Angle 1-10-9:  104.878
        Angle 1-10-11:   71.707
        Angle 1-10-12:  127.435
        Angle 1-10-13:   93.091
        Angle 1-10-14:  106.582
        Angle 2-10-3:   53.419
        Angle 2-10-4:   29.486
        Angle 2-10-5:   43.869
        Angle 2-10-6:   42.391
        Angle 2-10-7:   13.890
        Angle 2-10-8:   25.643
        Angle 2-10-9:   72.768
        Angle 2-10-11:   66.123
        Angle 2-10-12:   97.466
        Angle 2-10-13:   62.483
        Angle 2-10-14:   73.722
        Angle 3-10-4:   24.052
        Angle 3-10-5:   34.093
        Angle 3-10-6:   89.957
        Angle 3-10-7:   65.026
        Angle 3-10-8:   58.922
        Angle 3-10-9:  126.186
        Angle 3-10-11:   90.119
        Angle 3-10-12:  150.172
        Angle 3-10-13:  115.340
        Angle 3-10-14:  121.366
        Angle 4-10-5:   27.521
        Angle 4-10-6:   67.244
        Angle 4-10-7:   41.069
        Angle 4-10-8:   40.715
        Angle 4-10-9:  102.203
        Angle 4-10-11:   76.628
        Angle 4-10-12:  126.328
        Angle 4-10-13:   91.348
        Angle 4-10-14:  100.982
        Angle 5-10-6:   63.165
        Angle 5-10-7:   47.842
        Angle 5-10-8:   64.663
        Angle 5-10-9:  105.227
        Angle 5-10-11:   56.027
        Angle 5-10-12:  121.506
        Angle 5-10-13:   91.957
        Angle 5-10-14:  115.641
        Angle 6-10-7:   28.500
        Angle 6-10-8:   59.332
        Angle 6-10-9:   42.304
        Angle 6-10-11:   36.436
        Angle 6-10-12:   60.611
        Angle 6-10-13:   28.911
        Angle 6-10-14:   59.692
        Angle 7-10-8:   34.957
        Angle 7-10-9:   61.780
        Angle 7-10-11:   55.033
        Angle 7-10-12:   85.259
        Angle 7-10-13:   50.313
        Angle 7-10-14:   67.800
        Angle 8-10-9:   72.894
        Angle 8-10-11:   89.990
        Angle 8-10-12:   98.298
        Angle 8-10-13:   67.711
        Angle 8-10-14:   62.445
        Angle 9-10-11:   66.092
        Angle 9-10-12:   25.755
        Angle 9-10-13:   13.407
        Angle 9-10-14:   25.465
        Angle 11-10-12:   69.429
        Angle 11-10-13:   55.067
        Angle 11-10-14:   90.086
        Angle 12-10-13:   35.033
        Angle 12-10-14:   41.168
        Angle 13-10-14:   35.020
        Angle 1-11-2:   33.355
        Angle 1-11-3:   20.001
        Angle 1-11-4:    7.727
        Angle 1-11-5:   22.922
        Angle 1-11-6:   66.992
        Angle 1-11-7:   47.835
        Angle 1-11-8:   43.094
        Angle 1-11-9:  104.852
        Angle 1-11-10:   71.658
        Angle 1-11-12:  127.395
        Angle 1-11-13:  106.584
        Angle 1-11-14:   93.058
        Angle 2-11-3:   43.852
        Angle 2-11-4:   29.467
        Angle 2-11-5:   53.400
        Angle 2-11-6:   42.390
        Angle 2-11-7:   25.651
        Angle 2-11-8:   13.891
        Angle 2-11-9:   72.767
        Angle 2-11-10:   66.122
        Angle 2-11-12:   97.462
        Angle 2-11-13:   73.728
        Angle 2-11-14:   62.479
        Angle 3-11-4:   27.516
        Angle 3-11-5:   34.082
        Angle 3-11-6:   63.111
        Angle 3-11-7:   64.655
        Angle 3-11-8:   47.837
        Angle 3-11-9:  105.174
        Angle 3-11-10:   55.968
        Angle 3-11-12:  121.438
        Angle 3-11-13:  115.613
        Angle 3-11-14:   91.902
        Angle 4-11-5:   24.051
        Angle 4-11-6:   67.209
        Angle 4-11-7:   40.705
        Angle 4-11-8:   41.058
        Angle 4-11-9:  102.182
        Angle 4-11-10:   76.584
        Angle 4-11-12:  126.296
        Angle 4-11-13:  100.986
        Angle 4-11-14:   91.319
        Angle 5-11-6:   89.912
        Angle 5-11-7:   58.911
        Angle 5-11-8:   65.014
        Angle 5-11-9:  126.167
        Angle 5-11-10:   90.050
        Angle 5-11-12:  150.132
        Angle 5-11-13:  121.391
        Angle 5-11-14:  115.307
        Angle 6-11-7:   59.361
        Angle 6-11-8:   28.499
        Angle 6-11-9:   42.303
        Angle 6-11-10:   36.436
        Angle 6-11-12:   60.605
        Angle 6-11-13:   59.696
        Angle 6-11-14:   28.909
        Angle 7-11-8:   34.957
        Angle 7-11-9:   72.930
        Angle 7-11-10:   90.009
        Angle 7-11-12:   98.333
        Angle 7-11-13:   62.481
        Angle 7-11-14:   67.742
        Angle 8-11-9:   61.758
        Angle 8-11-10:   55.052
        Angle 8-11-12:   85.239
        Angle 8-11-13:   67.776
        Angle 8-11-14:   50.292
        Angle 9-11-10:   66.091
        Angle 9-11-12:   25.753
        Angle 9-11-13:   25.467
        Angle 9-11-14:   13.407
        Angle 10-11-12:   69.421
        Angle 10-11-13:   90.088
        Angle 10-11-14:   55.069
        Angle 12-11-13:   41.168
        Angle 12-11-14:   35.032
        Angle 13-11-14:   35.019
        Angle 1-12-2:   13.119
        Angle 1-12-3:   12.722
        Angle 1-12-4:    6.872
        Angle 1-12-5:   12.720
        Angle 1-12-6:    3.229
        Angle 1-12-7:   26.498
        Angle 1-12-8:   26.495
        Angle 1-12-9:   38.309
        Angle 1-12-10:   27.859
        Angle 1-12-11:   27.884
        Angle 1-12-13:   63.523
        Angle 1-12-14:   63.503
        Angle 2-12-3:   22.963
        Angle 2-12-4:    6.247
        Angle 2-12-5:   22.953
        Angle 2-12-6:   16.347
        Angle 2-12-7:   16.633
        Angle 2-12-8:   16.637
        Angle 2-12-9:   25.190
        Angle 2-12-10:   37.725
        Angle 2-12-11:   37.726
        Angle 2-12-13:   52.927
        Angle 2-12-14:   52.922
        Angle 3-12-4:   17.625
        Angle 3-12-5:   20.587
        Angle 3-12-6:   11.160
        Angle 3-12-7:   38.510
        Angle 3-12-8:   30.084
        Angle 3-12-9:   46.714
        Angle 3-12-10:   15.242
        Angle 3-12-11:   32.968
        Angle 3-12-13:   75.522
        Angle 3-12-14:   64.596
        Angle 4-12-5:   17.628
        Angle 4-12-6:   10.100
        Angle 4-12-7:   20.914
        Angle 4-12-8:   20.903
        Angle 4-12-9:   31.437
        Angle 4-12-10:   32.769
        Angle 4-12-11:   32.790
        Angle 4-12-13:   57.896
        Angle 4-12-14:   57.874
        Angle 5-12-6:   11.123
        Angle 5-12-7:   30.077
        Angle 5-12-8:   38.503
        Angle 5-12-9:   46.712
        Angle 5-12-10:   32.926
        Angle 5-12-11:   15.266
        Angle 5-12-13:   64.620
        Angle 5-12-14:   75.501
        Angle 6-12-7:   29.292
        Angle 6-12-8:   29.309
        Angle 6-12-9:   41.537
        Angle 6-12-10:   25.848
        Angle 6-12-11:   25.847
        Angle 6-12-13:   66.205
        Angle 6-12-14:   66.205
        Angle 7-12-8:   26.788
        Angle 7-12-9:   20.186
        Angle 7-12-10:   53.682
        Angle 7-12-11:   40.963
        Angle 7-12-13:   37.066
        Angle 7-12-14:   55.502
        Angle 8-12-9:   20.170
        Angle 8-12-10:   40.987
        Angle 8-12-11:   53.693
        Angle 8-12-13:   55.489
        Angle 8-12-14:   37.050
        Angle 9-12-10:   59.834
        Angle 9-12-11:   59.829
        Angle 9-12-13:   35.882
        Angle 9-12-14:   35.882
        Angle 10-12-11:   41.149
        Angle 10-12-13:   90.592
        Angle 10-12-14:   70.066
        Angle 11-12-13:   70.059
        Angle 11-12-14:   90.589
        Angle 13-12-14:   59.975
        Angle 1-13-2:    9.408
        Angle 1-13-3:   11.957
        Angle 1-13-4:   10.714
        Angle 1-13-5:   14.054
        Angle 1-13-6:   28.700
        Angle 1-13-7:   24.221
        Angle 1-13-8:   29.363
        Angle 1-13-9:   66.134
        Angle 1-13-10:   40.865
        Angle 1-13-11:   38.914
        Angle 1-13-12:   94.733
        Angle 1-13-14:   78.042
        Angle 2-13-3:   14.300
        Angle 2-13-4:    8.559
        Angle 2-13-5:   23.259
        Angle 2-13-6:   32.946
        Angle 2-13-7:   22.710
        Angle 2-13-8:   20.151
        Angle 2-13-9:   65.404
        Angle 2-13-10:   42.885
        Angle 2-13-11:   47.443
        Angle 2-13-12:   97.206
        Angle 2-13-14:   71.818
        Angle 3-13-4:   20.813
        Angle 3-13-5:   21.523
        Angle 3-13-6:   18.646
        Angle 3-13-7:   35.308
        Angle 3-13-8:   28.199
        Angle 3-13-9:   54.176
        Angle 3-13-10:   29.364
        Angle 3-13-11:   36.183
        Angle 3-13-12:   83.663
        Angle 3-13-14:   68.455
        Angle 4-13-5:   20.879
        Angle 4-13-6:   38.902
        Angle 4-13-7:   14.603
        Angle 4-13-8:   25.568
        Angle 4-13-9:   73.709
        Angle 4-13-10:   50.149
        Angle 4-13-11:   48.937
        Angle 4-13-12:  104.476
        Angle 4-13-14:   79.685
        Angle 5-13-6:   30.758
        Angle 5-13-7:   28.741
        Angle 5-13-8:   43.371
        Angle 5-13-9:   71.953
        Angle 5-13-10:   44.672
        Angle 5-13-11:   29.867
        Angle 5-13-12:   94.501
        Angle 5-13-14:   89.978
        Angle 6-13-7:   52.920
        Angle 6-13-8:   43.526
        Angle 6-13-9:   41.448
        Angle 6-13-10:   13.987
        Angle 6-13-11:   25.573
        Angle 6-13-12:   66.098
        Angle 6-13-14:   66.172
        Angle 7-13-8:   33.925
        Angle 7-13-9:   88.113
        Angle 7-13-10:   64.672
        Angle 7-13-11:   58.608
        Angle 7-13-12:  118.883
        Angle 7-13-14:   89.919
        Angle 8-13-9:   61.372
        Angle 8-13-10:   47.625
        Angle 8-13-11:   64.381
        Angle 8-13-12:   96.990
        Angle 8-13-14:   55.994
        Angle 9-13-10:   27.474
        Angle 9-13-11:   58.822
        Angle 9-13-12:   35.882
        Angle 9-13-14:   35.912
        Angle 10-13-11:   34.845
        Angle 10-13-12:   54.376
        Angle 10-13-14:   55.070
        Angle 11-13-12:   68.773
        Angle 11-13-14:   89.915
        Angle 12-13-14:   60.013
        Angle 1-14-2:    9.429
        Angle 1-14-3:   14.059
        Angle 1-14-4:   10.716
        Angle 1-14-5:   11.953
        Angle 1-14-6:   28.719
        Angle 1-14-7:   29.376
        Angle 1-14-8:   24.218
        Angle 1-14-9:   66.165
        Angle 1-14-10:   38.907
        Angle 1-14-11:   40.887
        Angle 1-14-12:   94.753
        Angle 1-14-13:   78.080
        Angle 2-14-3:   23.287
        Angle 2-14-4:    8.590
        Angle 2-14-5:   14.294
        Angle 2-14-6:   32.948
        Angle 2-14-7:   20.142
        Angle 2-14-8:   22.711
        Angle 2-14-9:   65.411
        Angle 2-14-10:   47.443
        Angle 2-14-11:   42.886
        Angle 2-14-12:   97.211
        Angle 2-14-13:   71.827
        Angle 3-14-4:   20.881
        Angle 3-14-5:   21.523
        Angle 3-14-6:   30.793
        Angle 3-14-7:   43.390
        Angle 3-14-8:   28.763
        Angle 3-14-9:   71.991
        Angle 3-14-10:   29.872
        Angle 3-14-11:   44.707
        Angle 3-14-12:   94.523
        Angle 3-14-13:   90.022
        Angle 4-14-5:   20.815
        Angle 4-14-6:   38.921
        Angle 4-14-7:   25.594
        Angle 4-14-8:   14.585
        Angle 4-14-9:   73.743
        Angle 4-14-10:   48.935
        Angle 4-14-11:   50.171
        Angle 4-14-12:  104.501
        Angle 4-14-13:   79.728
        Angle 5-14-6:   18.655
        Angle 5-14-7:   28.204
        Angle 5-14-8:   35.296
        Angle 5-14-9:   54.212
        Angle 5-14-10:   36.161
        Angle 5-14-11:   29.386
        Angle 5-14-12:   83.685
        Angle 5-14-13:   68.499
        Angle 6-14-7:   43.507
        Angle 6-14-8:   52.936
        Angle 6-14-9:   41.448
        Angle 6-14-10:   25.572
        Angle 6-14-11:   13.987
        Angle 6-14-12:   66.098
        Angle 6-14-13:   66.171
        Angle 7-14-8:   33.912
        Angle 7-14-9:   61.364
        Angle 7-14-10:   64.364
        Angle 7-14-11:   47.605
        Angle 7-14-12:   96.981
        Angle 7-14-13:   56.000
        Angle 8-14-9:   88.121
        Angle 8-14-10:   58.635
        Angle 8-14-11:   64.682
        Angle 8-14-12:  118.897
        Angle 8-14-13:   89.913
        Angle 9-14-10:   58.816
        Angle 9-14-11:   27.474
        Angle 9-14-12:   35.882
        Angle 9-14-13:   35.912
        Angle 10-14-11:   34.845
        Angle 10-14-12:   68.766
        Angle 10-14-13:   89.910
        Angle 11-14-12:   54.379
        Angle 11-14-13:   55.066
        Angle 12-14-13:   60.012


    Molecular point group: c1
    Full point group: C1

    Geometry (in Angstrom), charge = 0, multiplicity = 1:

    C       
    C             1    1.541094
    H             1    1.086016      2  110.747024
    H             1    1.086010      2  110.604256      3  119.994379
    H             1    1.086015      2  110.746292      3 -120.011702
    C             2    1.545000      1  112.447550      3   59.991430
    H             2    1.088538      1  109.311183      6  121.518552
    H             2    1.088538      1  109.309752      6 -121.516512
    C             6    1.541094      2  112.447544      1    dihedral
    H             6    1.088537      2  109.249828      9  121.550045
    H             6    1.088538      2  109.251230      9 -121.553346
    H             9    1.086010      6  110.604237     10   58.474235
    H             9    1.086015      6  110.746117     10  178.468014
    H             9    1.086017      6  110.747198     10  -61.520268

    dihedral  = -179.9497663386

