
    -----------------------------------------------------------------------
          Psi4: An Open-Source Ab Initio Electronic Structure Package
                               Psi4 1.9.1 release

                         Git: Rev {} zzzzzzz 


    D. G. A. Smith, L. A. Burns, A. C. Simmonett, R. M. Parrish,
    M. C. Schieber, R. Galvelis, P. Kraus, H. Kruse, R. Di Remigio,
    A. Alenaizan, A. M. James, S. Lehtola, J. P. Misiewicz, M. Scheurer,
    R. A. Shaw, J. B. Schriber, Y. Xie, Z. L. Glick, D. A. Sirianni,
    J. S. O'Brien, J. M. Waldrop, A. Kumar, E. G. Hohenstein,
    B. P. Pritchard, B. R. Brooks, H. F. Schaefer III, A. Yu. Sokolov,
    K. Patkowski, A. E. DePrince III, U. Bozkaya, R. A. King,
    F. A. Evangelista, J. M. Turney, T. D. Crawford, C. D. Sherrill,
    J. Chem. Phys. 152(18) 184108 (2020). https://doi.org/10.1063/5.0006002

                            Additional Code Authors
    E. T. Seidl, C. L. Janssen, E. F. Valeev, M. L. Leininger,
    J. F. Gonthier, R. M. Richard, H. R. McAlexander, M. Saitow, X. Wang,
    P. Verma, M. H. Lechner, A. Jiang, S. Behnle, A. G. Heide,
    M. F. Herbst, and D. L. Poole

             Previous Authors, Complete List of Code Contributors,
                       and Citations for Specific Modules
    https://github.com/psi4/psi4/blob/master/codemeta.json
    https://github.com/psi4/psi4/graphs/contributors
    http://psicode.org/psi4manual/master/introduction.html#citing-psifour

    -----------------------------------------------------------------------


    Psi4 started on: Thursday, 09 May 2024 11:50AM

    Process ID: 44366
    Host:       Barrys-MacBook-Pro.local
    PSIDATADIR: /Users/blink/psi4conda/share/psi4
    Memory:     953.7 MiB
    Threads:    4
      Threads set to 4 by Python driver.

Scratch directory: /tmp/
gradient() will perform analytic gradient computation.
   => Libint2 <=

    Primary   basis highest AM E, G, H:  5, 4, 3
    Auxiliary basis highest AM E, G, H:  6, 5, 4
    Onebody   basis highest AM E, G, H:  6, 5, 4
    Solid Harmonics ordering:            Gaussian

*** tstart() called on Barrys-MacBook-Pro.local
*** at Thu May  9 11:51:04 2024

   => Loading Basis Set <=

    Name: STO-3G
    Role: ORBITAL
    Keyword: BASIS
    atoms 1-2, 6, 9       entry C          line    61 file /Users/blink/psi4conda/share/psi4/basis/sto-3g.gbs 
    atoms 3-5, 7-8, 10-14 entry H          line    19 file /Users/blink/psi4conda/share/psi4/basis/sto-3g.gbs 


         ---------------------------------------------------------
                                   SCF
               by Justin Turney, Rob Parrish, Andy Simmonett
                          and Daniel G. A. Smith
                              RHF Reference
                        4 Threads,    953 MiB Core
         ---------------------------------------------------------

  ==> Geometry <==

    Molecular point group: c1
    Full point group: C1

    Geometry (in Angstrom), charge = 0, multiplicity = 1:

       Center              X                  Y                   Z               Mass       
    ------------   -----------------  -----------------  -----------------  -----------------
         C            0.630165507294    -0.326942830914    -1.742321626664    12.000000000000
         C            0.630165507294    -0.326942830914    -0.242321626664    12.000000000000
         H            0.630165507294     0.618575744685    -2.067889781122     1.007825032230
         H            1.449008613513    -0.799702118714    -2.067889781122     1.007825032230
         H           -0.188677598925    -0.799702118714    -2.067889781122     1.007825032230
         C           -0.598099152034     0.382196100785     0.246030605021    12.000000000000
         H            0.630165507294    -1.272461406514     0.083246527793     1.007825032230
         H            1.449008613513     0.145816456885     0.083246527793     1.007825032230
         C           -0.661426361147     0.276024323781     1.740927664472    12.000000000000
         H           -0.548888447724     1.343282798775    -0.025797770113     1.007825032230
         H           -1.404859433581    -0.046363306041    -0.160755189888     1.007825032230
         H           -1.475214008381     0.756898220984     2.067286301860     1.007825032230
         H           -0.710187359072    -0.689409663506     1.996973717505     1.007825032230
         H            0.159887638816     0.691452114874     2.131904727549     1.007825032230

  Running in c1 symmetry.

  Rotational constants: A =      0.84026  B =      0.13317  C =      0.12421 [cm^-1]
  Rotational constants: A =  25190.23203  B =   3992.29139  C =   3723.63571 [MHz]
  Nuclear repulsion =  137.416353251361642

  Charge       = 0
  Multiplicity = 1
  Electrons    = 34
  Nalpha       = 17
  Nbeta        = 17

  ==> Algorithm <==

  SCF Algorithm Type is DIRECT.
  DIIS enabled.
  MOM disabled.
  Fractional occupation disabled.
  Guess Type is SAD.
  Energy threshold   = 1.00e-08
  Density threshold  = 1.00e-08
  Integral threshold = 1.00e-08

  ==> Primary Basis <==

  -AO BASIS SET INFORMATION:
    Name                   = STO-3G
    Blend                  = STO-3G
    Total number of shells = 22
    Number of primitives   = 66
    Number of AO           = 30
    Number of SO           = 30
    Maximum AM             = 1
    Spherical Harmonics    = TRUE

  -Contraction Scheme:
    Atom   Type   All Primitives // Shells:
   ------ ------ --------------------------
       1     C     6s 3p // 2s 1p 
       2     C     6s 3p // 2s 1p 
       3     H     3s // 1s 
       4     H     3s // 1s 
       5     H     3s // 1s 
       6     C     6s 3p // 2s 1p 
       7     H     3s // 1s 
       8     H     3s // 1s 
       9     C     6s 3p // 2s 1p 
      10     H     3s // 1s 
      11     H     3s // 1s 
      12     H     3s // 1s 
      13     H     3s // 1s 
      14     H     3s // 1s 

   => Loading Basis Set <=

    Name: (STO-3G AUX)
    Role: JKFIT
    Keyword: DF_BASIS_SCF
    atoms 1-2, 6, 9       entry C          line   198 file /Users/blink/psi4conda/share/psi4/basis/def2-universal-jkfit.gbs 
    atoms 3-5, 7-8, 10-14 entry H          line    18 file /Users/blink/psi4conda/share/psi4/basis/def2-universal-jkfit.gbs 

  Starting with a DF guess...

  ==> Integral Setup <==

  DFHelper Memory: AOs need 0.005 GiB; user supplied 0.698 GiB. 
  Using in-core AOs.

  ==> MemDFJK: Density-Fitted J/K Matrices <==

    J tasked:                   Yes
    K tasked:                   Yes
    wK tasked:                   No
    OpenMP threads:               4
    Memory [MiB]:               715
    Algorithm:                 Core
    Schwarz Cutoff:           1E-08
    Mask sparsity (%):       0.6667
    Fitting Condition:        1E-10

   => Auxiliary Basis Set <=

  -AO BASIS SET INFORMATION:
    Name                   = (STO-3G AUX)
    Blend                  = DEF2-UNIVERSAL-JKFIT
    Total number of shells = 160
    Number of primitives   = 212
    Number of AO           = 556
    Number of SO           = 480
    Maximum AM             = 4
    Spherical Harmonics    = TRUE

  -Contraction Scheme:
    Atom   Type   All Primitives // Shells:
   ------ ------ --------------------------
       1     C     14s 10p 6d 2f 1g // 10s 8p 5d 1f 1g 
       2     C     14s 10p 6d 2f 1g // 10s 8p 5d 1f 1g 
       3     H     4s 2p 2d // 2s 2p 2d 
       4     H     4s 2p 2d // 2s 2p 2d 
       5     H     4s 2p 2d // 2s 2p 2d 
       6     C     14s 10p 6d 2f 1g // 10s 8p 5d 1f 1g 
       7     H     4s 2p 2d // 2s 2p 2d 
       8     H     4s 2p 2d // 2s 2p 2d 
       9     C     14s 10p 6d 2f 1g // 10s 8p 5d 1f 1g 
      10     H     4s 2p 2d // 2s 2p 2d 
      11     H     4s 2p 2d // 2s 2p 2d 
      12     H     4s 2p 2d // 2s 2p 2d 
      13     H     4s 2p 2d // 2s 2p 2d 
      14     H     4s 2p 2d // 2s 2p 2d 

  Minimum eigenvalue in the overlap matrix is 1.6174969593E-01.
  Reciprocal condition number of the overlap matrix is 5.7268363395E-02.
    Using symmetric orthogonalization.

  ==> Pre-Iterations <==

  SCF Guess: Superposition of Atomic Densities via on-the-fly atomic UHF (no occupation information).

   -------------------------
    Irrep   Nso     Nmo    
   -------------------------
     A         30      30 
   -------------------------
    Total      30      30
   -------------------------

  ==> Iterations <==

                           Total Energy        Delta E     RMS |[F,P]|

   @DF-RHF iter SAD:  -152.37257086407081   -1.52373e+02   0.00000e+00 
   @DF-RHF iter   1:  -155.38136505157465   -3.00879e+00   3.00899e-03 DIIS/ADIIS
   @DF-RHF iter   2:  -155.38680211113072   -5.43706e-03   5.76518e-04 DIIS/ADIIS
   @DF-RHF iter   3:  -155.38704810924119   -2.45998e-04   9.26326e-05 DIIS
   @DF-RHF iter   4:  -155.38705358357367   -5.47433e-06   6.45346e-06 DIIS
   @DF-RHF iter   5:  -155.38705361240011   -2.88264e-08   9.63843e-07 DIIS
   @DF-RHF iter   6:  -155.38705361302621   -6.26102e-10   1.17122e-07 DIIS
   @DF-RHF iter   7:  -155.38705361303832   -1.21076e-11   2.01371e-08 DIIS
   @DF-RHF iter   8:  -155.38705361303866   -3.41061e-13   2.26513e-09 DIIS

  DF guess converged.

  ==> DirectJK: Integral-Direct J/K Matrices <==

    J tasked:                  Yes
    K tasked:                  Yes
    wK tasked:                  No
    Integrals threads:           4
    Screening Type:           CSAM
    Screening Cutoff:        1E-08
    Incremental Fock:           No

   @RHF iter   9:  -155.38654648099993   -1.55387e+02   4.19321e-06 DIIS
   @RHF iter  10:  -155.38654648781824   -6.81831e-09   5.61804e-07 DIIS
   @RHF iter  11:  -155.38654648796060   -1.42364e-10   8.88893e-08 DIIS
   @RHF iter  12:  -155.38654648796631   -5.71276e-12   1.44019e-08 DIIS
   @RHF iter  13:  -155.38654648796668   -3.69482e-13   8.52556e-10 DIIS
  Energy and wave function converged.


  ==> Post-Iterations <==

    Orbital Energies [Eh]
    ---------------------

    Doubly Occupied:                                                      

       1A    -11.033792     2A    -11.033018     3A    -11.026107  
       4A    -11.025241     5A     -1.072680     6A     -0.982521  
       7A     -0.861622     8A     -0.799626     9A     -0.659600  
      10A     -0.594327    11A     -0.582839    12A     -0.570201  
      13A     -0.511279    14A     -0.502802    15A     -0.467401  
      16A     -0.454757    17A     -0.420913  

    Virtual:                                                              

      18A      0.660906    19A      0.676363    20A      0.701808  
      21A      0.731596    22A      0.785236    23A      0.820313  
      24A      0.838594    25A      0.844477    26A      0.866212  
      27A      0.882309    28A      0.913598    29A      0.932316  
      30A      0.937286  

    Final Occupation by Irrep:
              A 
    DOCC [    17 ]
    NA   [    17 ]
    NB   [    17 ]

  @RHF Final Energy:  -155.38654648796668

   => Energetics <=

    Nuclear Repulsion Energy =            137.4163532513616417
    One-Electron Energy =                -480.4083501335272217
    Two-Electron Energy =                 187.6054503941989253
    Total Energy =                       -155.3865464879666831

Computation Completed


Properties will be evaluated at   0.000000,   0.000000,   0.000000 [a0]

Properties computed using the SCF density matrix


 Multipole Moments:

 ------------------------------------------------------------------------------------
     Multipole            Electronic (a.u.)      Nuclear  (a.u.)        Total (a.u.)
 ------------------------------------------------------------------------------------

 L = 1.  Multiply by 2.5417464519 to convert [e a0] to [Debye]
 Dipole X            :          0.0106119           -0.0089912            0.0016207
 Dipole Y            :          0.0507561           -0.0483859            0.0023702
 Dipole Z            :          0.0267372           -0.0258409            0.0008963
 Magnitude           :                                                    0.0030080

 ------------------------------------------------------------------------------------

*** tstop() called on Barrys-MacBook-Pro.local at Thu May  9 11:51:05 2024
Module time:
	user time   =       3.23 seconds =       0.05 minutes
	system time =       0.07 seconds =       0.00 minutes
	total time  =          1 seconds =       0.02 minutes
Total time:
	user time   =     118.70 seconds =       1.98 minutes
	system time =       1.81 seconds =       0.03 minutes
	total time  =         36 seconds =       0.60 minutes

*** tstart() called on Barrys-MacBook-Pro.local
*** at Thu May  9 11:51:05 2024


         ------------------------------------------------------------
                                   SCF GRAD                          
                          Rob Parrish, Justin Turney,                
                       Andy Simmonett, and Alex Sokolov              
         ------------------------------------------------------------

  ==> Geometry <==

    Molecular point group: c1
    Full point group: C1

    Geometry (in Angstrom), charge = 0, multiplicity = 1:

       Center              X                  Y                   Z               Mass       
    ------------   -----------------  -----------------  -----------------  -----------------
         C            0.630165507294    -0.326942830914    -1.742321626664    12.000000000000
         C            0.630165507294    -0.326942830914    -0.242321626664    12.000000000000
         H            0.630165507294     0.618575744685    -2.067889781122     1.007825032230
         H            1.449008613513    -0.799702118714    -2.067889781122     1.007825032230
         H           -0.188677598925    -0.799702118714    -2.067889781122     1.007825032230
         C           -0.598099152034     0.382196100785     0.246030605021    12.000000000000
         H            0.630165507294    -1.272461406514     0.083246527793     1.007825032230
         H            1.449008613513     0.145816456885     0.083246527793     1.007825032230
         C           -0.661426361147     0.276024323781     1.740927664472    12.000000000000
         H           -0.548888447724     1.343282798775    -0.025797770113     1.007825032230
         H           -1.404859433581    -0.046363306041    -0.160755189888     1.007825032230
         H           -1.475214008381     0.756898220984     2.067286301860     1.007825032230
         H           -0.710187359072    -0.689409663506     1.996973717505     1.007825032230
         H            0.159887638816     0.691452114874     2.131904727549     1.007825032230

  Nuclear repulsion =  137.416353251361670

  ==> Basis Set <==

  -AO BASIS SET INFORMATION:
    Name                   = STO-3G
    Blend                  = STO-3G
    Total number of shells = 22
    Number of primitives   = 66
    Number of AO           = 30
    Number of SO           = 30
    Maximum AM             = 1
    Spherical Harmonics    = TRUE

  -Contraction Scheme:
    Atom   Type   All Primitives // Shells:
   ------ ------ --------------------------
       1     C     6s 3p // 2s 1p 
       2     C     6s 3p // 2s 1p 
       3     H     3s // 1s 
       4     H     3s // 1s 
       5     H     3s // 1s 
       6     C     6s 3p // 2s 1p 
       7     H     3s // 1s 
       8     H     3s // 1s 
       9     C     6s 3p // 2s 1p 
      10     H     3s // 1s 
      11     H     3s // 1s 
      12     H     3s // 1s 
      13     H     3s // 1s 
      14     H     3s // 1s 

  ==> DirectJKGrad: Integral-Direct SCF Gradients <==

    Gradient:                    1
    J tasked:                  Yes
    K tasked:                  Yes
    wK tasked:                  No
    Integrals threads:           4
    Schwarz Cutoff:          1E-08


  -Nuclear Gradient:
     Atom            X                  Y                   Z
    ------   -----------------  -----------------  -----------------
       1       -1.322899261222     0.724535483558     6.153151355757
       2       -4.072671963029     2.229810016680    -1.023484483841
       3       -0.186717056253    -2.013421620792     1.383592712019
       4       -1.888750157097     1.086711280490     1.227270294543
       5        1.643926505188     1.162664163103     1.389283284875
       6        3.881289781061    -2.608091196829     0.949195376172
       7       -0.404988180524     2.469656317496    -0.762172276196
       8       -2.337339960249    -0.912123013007    -0.779841534192
       9        1.527505067073    -0.385957110493    -6.128045475494
      10        0.263075741894    -2.533878264159     0.636335503272
      11        2.316394011333     0.765076133792     0.939257269145
      12        1.894200616161    -1.076112774148    -1.226195616925
      13        0.317625744991     2.090475051297    -1.229477312561
      14       -1.630650889328    -0.999344466988    -1.528869096573


  -Core Hamiltonian Gradient:
     Atom            X                  Y                   Z
    ------   -----------------  -----------------  -----------------
       1        2.619825431480    -1.439729185000   -11.808203573797
       2        7.578812349693    -4.133788268470     1.792675366105
       3        0.350695390523     5.018448755184    -2.913222704646
       4        4.515878302602    -2.601383766983    -2.571169717256
       5       -4.165236984841    -2.802703466053    -2.924352741627
       6       -7.353077278560     4.921355151281    -1.518456643868
       7        0.717823289154    -5.994524243695     1.840384679592
       8        5.536926917744     2.430146243317     1.852185376954
       9       -2.986735292788     0.768795948554    11.795525039202
      10       -0.340679966922     6.107733126320    -1.569201075919
      11       -5.449034951892    -2.112680950613    -2.357936824312
      12       -4.513445096778     2.597488378747     2.567318343290
      13       -0.654174643282    -5.185757367229     2.538116953184
      14        4.142422533867     2.426599644638     3.276337523098


  -Overlap Gradient:
     Atom            X                  Y                   Z
    ------   -----------------  -----------------  -----------------
       1        0.003084600859    -0.001559745263    -0.034715674139
       2        0.032296427674    -0.018171997635     0.015325621247
       3        0.000483229620    -0.144490928683     0.046106894090
       4       -0.124701318833     0.072037555785     0.046646916920
       5        0.125485771555     0.071791816816     0.046034103897
       6       -0.024560200877     0.017866477978    -0.022178736581
       7        0.001283772236     0.143905713873    -0.048494005198
       8       -0.124161741588    -0.073262633290    -0.047827624643
       9       -0.004751252869    -0.000065585963     0.033032254265
      10       -0.010037367616    -0.145855688287     0.041714451970
      11        0.120972734182     0.067091174968     0.063097223645
      12        0.123848872994    -0.073457353676    -0.046853765699
      13        0.006764335479     0.147471828848    -0.035628059430
      14       -0.126007862817    -0.063300635473    -0.056259600344


  -Coulomb Gradient:
     Atom            X                  Y                   Z
    ------   -----------------  -----------------  -----------------
       1       -1.299625930998     0.716611506713     5.577113050364
       2       -3.436952243093     1.863705460642    -0.713279155630
       3       -0.164165564705    -3.233959604559     1.611673855724
       4       -2.825803748496     1.629371795737     1.425573177322
       5        2.719386147689     1.754696828925     1.617158159648
       6        3.410019582924    -2.269494435950     0.506548640528
       7       -0.314919273387     3.754464140656    -1.158445781895
       8       -3.399406717832    -1.630946658505    -1.152902980390
       9        1.458563243153    -0.390159582945    -5.589303760396
      10        0.067991869994    -3.807387247786     0.999929364301
      11        3.329745755092     1.449566778186     1.517971577070
      12        2.816786625484    -1.637840805304    -1.422930679792
      13        0.348730845580     3.329154354740    -1.373812827460
      14       -2.710350591406    -1.527782530549    -1.845292639394


  -Exchange Gradient:
     Atom            X                  Y                   Z
    ------   -----------------  -----------------  -----------------
       1       -0.007588387939     0.003775718389     0.045248917111
       2       -0.042306717651     0.023862136774    -0.012910670900
       3       -0.000298058154     0.286947040805    -0.092353385037
       4        0.248183561458    -0.143403797760    -0.090877281191
       5       -0.248825248338    -0.143166843160    -0.092443868219
       6        0.027484456873    -0.020485352559     0.027858568071
       7       -0.001794768315    -0.283981535408     0.094095720075
       8        0.245094390348     0.144040150378     0.093071097475
       9        0.010613918175    -0.002965021158    -0.043046176130
      10        0.019271203979     0.287347955448    -0.081028966574
      11       -0.239007889900    -0.131752013686    -0.122814388003
      12       -0.246325319368     0.146294181424     0.090916600218
      13       -0.014179327862    -0.292661083159     0.071733858342
      14        0.249678186693     0.126148463670     0.112549974761


  -Total Gradient:
     Atom            X                  Y                   Z
    ------   -----------------  -----------------  -----------------
       1       -0.007203547821     0.003633778398    -0.067405924705
       2        0.059177853594    -0.034582652009     0.058326676981
       3       -0.000002058968    -0.086476358046     0.035797372150
       4       -0.075193360366     0.043333067269     0.037443390338
       5        0.074736191253     0.043282499631     0.035678938575
       6       -0.058843658578     0.041150643922    -0.057032795678
       7       -0.002595160837     0.089520392923    -0.034631663623
       8       -0.078887111577    -0.042145911108    -0.035315664796
       9        0.005195682744    -0.010351352005     0.068161881448
      10       -0.000378518670    -0.092040118463     0.027749277049
      11        0.079069658816     0.037301122646     0.039574857545
      12        0.075065698493    -0.043628372957    -0.037745118907
      13        0.004766954908     0.088682784498    -0.029067387924
      14       -0.074908622990    -0.037679524701    -0.041533838452


*** tstop() called on Barrys-MacBook-Pro.local at Thu May  9 11:51:05 2024
Module time:
	user time   =       0.51 seconds =       0.01 minutes
	system time =       0.01 seconds =       0.00 minutes
	total time  =          0 seconds =       0.00 minutes
Total time:
	user time   =     119.22 seconds =       1.99 minutes
	system time =       1.82 seconds =       0.03 minutes
	total time  =         36 seconds =       0.60 minutes

    			-----------------------------------------

    			 OPTKING 3.0: for geometry optimizations 

    			     By R.A. King, Bethel University     

    			        with contributions from          

    			    A.V. Copan, J. Cayton, A. Heide      

    			-----------------------------------------

    
	                            ===> Fragment 1 <== 

	 Z (Atomic Numbers)          Masses                          Geom                  
	       6.000000            12.000000          1.19084022 -0.61783241 -3.29251070   
	       6.000000            12.000000          1.19084022 -0.61783241 -0.45792151   
	       1.000000             1.007825          1.19084022  1.16893875 -3.90774534   
	       1.000000             1.007825          2.73822943 -1.51121799 -3.90774534   
	       1.000000             1.007825         -0.35654899 -1.51121799 -3.90774534   
	       6.000000            12.000000         -1.13024359  0.72224596  0.46493046   
	       1.000000             1.007825          1.19084022 -2.40460356  0.15731314   
	       1.000000             1.007825          2.73822943  0.27555317  0.15731314   
	       6.000000            12.000000         -1.24991467  0.52161038  3.28987649   
	       1.000000             1.007825         -1.03724884  2.53843660 -0.04875072   
	       1.000000             1.007825         -2.65479957 -0.08761395 -0.30378328   
	       1.000000             1.007825         -2.78775045  1.43033034  3.90660493   
	       1.000000             1.007825         -1.34205961 -1.30279545  3.77373341   
	       1.000000             1.007825          0.30214385  1.30665513  4.02871606   

	 - Coordinate -           - BOHR/RAD -       - ANG/DEG -
	 R(1,2)           =         2.834589           1.500000
	 R(1,3)           =         1.889726           1.000000
	 R(1,4)           =         1.889726           1.000000
	 R(1,5)           =         1.889726           1.000000
	 R(2,6)           =         2.834589           1.500000
	 R(2,7)           =         1.889726           1.000000
	 R(2,8)           =         1.889726           1.000000
	 R(6,9)           =         2.834589           1.500000
	 R(6,10)          =         1.889726           1.000000
	 R(6,11)          =         1.889726           1.000000
	 R(9,12)          =         1.889726           1.000000
	 R(9,13)          =         1.889726           1.000000
	 R(9,14)          =         1.889726           1.000000
	 B(1,2,6)         =         1.902409         109.000000
	 B(1,2,7)         =         1.902409         109.000000
	 B(1,2,8)         =         1.902409         109.000000
	 B(2,1,3)         =         1.902409         109.000000
	 B(2,1,4)         =         1.902409         109.000000
	 B(2,1,5)         =         1.902409         109.000000
	 B(2,6,9)         =         1.902409         109.000000
	 B(2,6,10)        =         1.902409         109.000000
	 B(2,6,11)        =         1.902409         109.000000
	 B(3,1,4)         =         1.918785         109.938303
	 B(3,1,5)         =         1.918785         109.938303
	 B(4,1,5)         =         1.918785         109.938303
	 B(6,2,7)         =         1.918785         109.938303
	 B(6,2,8)         =         1.918785         109.938303
	 B(6,9,12)        =         1.902409         109.000000
	 B(6,9,13)        =         1.902409         109.000000
	 B(6,9,14)        =         1.902409         109.000000
	 B(7,2,8)         =         1.918785         109.938303
	 B(9,6,10)        =         1.918785         109.938303
	 B(9,6,11)        =         1.918785         109.938303
	 B(10,6,11)       =         1.918785         109.938303
	 B(12,9,13)       =         1.918785         109.938303
	 B(12,9,14)       =         1.918785         109.938303
	 B(13,9,14)       =         1.918785         109.938303
	 D(1,2,6,9)       =         3.054326         175.000000
	 D(1,2,6,10)      =        -1.134464         -65.000000
	 D(1,2,6,11)      =         0.959931          55.000000
	 D(2,6,9,12)      =         3.131447         179.418677
	 D(2,6,9,13)      =        -1.057344         -60.581323
	 D(2,6,9,14)      =         1.037052          59.418677
	 D(3,1,2,6)       =         1.047198          60.000000
	 D(3,1,2,7)       =         3.141593         180.000000
	 D(3,1,2,8)       =        -1.047198         -60.000000
	 D(4,1,2,6)       =         3.141593         180.000000
	 D(4,1,2,7)       =        -1.047198         -60.000000
	 D(4,1,2,8)       =         1.047198          60.000000
	 D(5,1,2,6)       =        -1.047198         -60.000000
	 D(5,1,2,7)       =         1.047198          60.000000
	 D(5,1,2,8)       =         3.141593         180.000000
	 D(7,2,6,9)       =         0.970077          55.581323
	 D(7,2,6,10)      =         3.064472         175.581323
	 D(7,2,6,11)      =        -1.124318         -64.418677
	 D(8,2,6,9)       =        -1.144610         -65.581323
	 D(8,2,6,10)      =         0.949785          54.418677
	 D(8,2,6,11)      =         3.044180         174.418677
	 D(10,6,9,12)     =         1.047198          60.000000
	 D(10,6,9,13)     =         3.141593         180.000000
	 D(10,6,9,14)     =        -1.047198         -60.000000
	 D(11,6,9,12)     =        -1.067490         -61.162647
	 D(11,6,9,13)     =         1.026906          58.837353
	 D(11,6,9,14)     =         3.121301         178.837353


	        --- Internal Coordinate Step in ANG or DEG, aJ/ANG or AJ/DEG ---
	-------------------------------------------------------------------------------
	           Coordinate      Previous         Force          Change          New 
	           ----------      --------        ------          ------        ------
	               R(1,2)       1.50000        0.34202        0.04500       1.54500
	               R(1,3)       1.00000        0.76966        0.07709       1.07709
	               R(1,4)       1.00000        0.77648        0.07777       1.07777
	               R(1,5)       1.00000        0.76847        0.07697       1.07697
	               R(2,6)       1.50000        0.34687        0.04564       1.54564
	               R(2,7)       1.00000        0.79024        0.07915       1.07915
	               R(2,8)       1.00000        0.79107        0.07923       1.07923
	               R(6,9)       1.50000        0.33173        0.04364       1.54364
	              R(6,10)       1.00000        0.79108        0.07923       1.07923
	              R(6,11)       1.00000        0.78988        0.07911       1.07911
	              R(9,12)       1.00000        0.77762        0.07788       1.07788
	              R(9,13)       1.00000        0.76861        0.07698       1.07698
	              R(9,14)       1.00000        0.76962        0.07708       1.07708
	             B(1,2,6)     109.00000        0.00118        2.45240     111.45240
	             B(1,2,7)     109.00000       -0.00022       -0.25202     108.74798
	             B(1,2,8)     109.00000       -0.00023       -0.29351     108.70649
	             B(2,1,3)     109.00000        0.00039        0.89820     109.89820
	             B(2,1,4)     109.00000        0.00057        1.33009     110.33009
	             B(2,1,5)     109.00000        0.00038        0.87631     109.87631
	             B(2,6,9)     109.00000        0.00121        2.49707     111.49707
	            B(2,6,10)     109.00000       -0.00027       -0.41163     108.58837
	            B(2,6,11)     109.00000       -0.00026       -0.38279     108.61721
	             B(3,1,4)     109.93830       -0.00046       -1.07763     108.86067
	             B(3,1,5)     109.93830       -0.00040       -0.96124     108.97706
	             B(4,1,5)     109.93830       -0.00046       -1.07083     108.86747
	             B(6,2,7)     109.93830       -0.00036       -0.73825     109.20005
	             B(6,2,8)     109.93830       -0.00037       -0.77193     109.16637
	            B(6,9,12)     109.00000        0.00061        1.40849     110.40849
	            B(6,9,13)     109.00000        0.00036        0.81342     109.81342
	            B(6,9,14)     109.00000        0.00037        0.83665     109.83665
	             B(7,2,8)     109.93830        0.00002       -0.39307     109.54523
	            B(9,6,10)     109.93830       -0.00035       -0.67909     109.25921
	            B(9,6,11)     109.93830       -0.00034       -0.64489     109.29341
	           B(10,6,11)     109.93830        0.00003       -0.37711     109.56119
	           B(12,9,13)     109.93830       -0.00046       -1.06602     108.87229
	           B(12,9,14)     109.93830       -0.00046       -1.07343     108.86487
	           B(13,9,14)     109.93830       -0.00038       -0.92332     109.01498
	           D(1,2,6,9)     175.00000        0.00003        0.14524     175.14524
	          D(1,2,6,10)     -65.00000        0.00017        0.57427     -64.42573
	          D(1,2,6,11)      55.00000       -0.00012       -0.34515      54.65485
	          D(2,6,9,12)     179.41868       -0.00000       -0.01874     179.39994
	          D(2,6,9,13)     -60.58132        0.00001        0.04014     -60.54119
	          D(2,6,9,14)      59.41868       -0.00002       -0.08325      59.33543
	           D(3,1,2,6)      60.00000       -0.00002       -0.08243      59.91757
	           D(3,1,2,7)     180.00000        0.00011        0.34979     180.34979
	           D(3,1,2,8)     -60.00000       -0.00014       -0.44566     -60.44566
	           D(4,1,2,6)     180.00000       -0.00001       -0.03343     179.96657
	           D(4,1,2,7)     -60.00000        0.00012        0.39879     -59.60121
	           D(4,1,2,8)      60.00000       -0.00012       -0.39666      59.60334
	           D(5,1,2,6)     -60.00000        0.00000        0.01005     -59.98995
	           D(5,1,2,7)      60.00000        0.00014        0.44228      60.44228
	           D(5,1,2,8)     180.00000       -0.00011       -0.35318     179.64682
	           D(7,2,6,9)      55.58132       -0.00020       -0.60231      54.97901
	          D(7,2,6,10)     175.58132       -0.00006       -0.17328     175.40804
	          D(7,2,6,11)     -64.41868       -0.00035       -1.09269     -65.51137
	           D(8,2,6,9)     -65.58132        0.00025        0.81900     -64.76232
	          D(8,2,6,10)      54.41868        0.00038        1.24803      55.66671
	          D(8,2,6,11)     174.41868        0.00010        0.32862     174.74730
	         D(10,6,9,12)      60.00000       -0.00020       -0.63442      59.36558
	         D(10,6,9,13)     180.00000       -0.00018       -0.57555     179.42445
	         D(10,6,9,14)     -60.00000       -0.00022       -0.69894     -60.69894
	         D(11,6,9,12)     -61.16265        0.00021        0.65539     -60.50726
	         D(11,6,9,13)      58.83735        0.00022        0.71426      59.55162
	         D(11,6,9,14)     178.83735        0.00019        0.59088     179.42823
	-------------------------------------------------------------------------------

	                                 ==> Convergence Check <==                                  
    
	Measures of convergence in internal coordinates in au.
    
	Criteria marked as inactive (o), active & met (*), and active & unmet ( ).

	----------------------------------------------------------------------------------------------
	   Step    Total Energy     Delta E     Max Force     RMS Force      Max Disp      RMS Disp   
	----------------------------------------------------------------------------------------------
	  Convergence Criteria     1.00e-06 *    3.00e-04 *             o    1.20e-03 *             o
	----------------------------------------------------------------------------------------------
	     1    -155.38654649   -1.55e+02      9.60e-02      3.87e-02 o    1.50e-01      6.25e-02 o  ~
	----------------------------------------------------------------------------------------------

Next Geometry in Ang 
	Fragment 1 (Ang)

	    C   0.6637264055  -0.3430565399  -1.8156202717
	    C   0.6432685167  -0.3341631350  -0.2707825738
	    H   0.6665394150   0.6675967889  -2.1880255312
	    H   1.5444261444  -0.8494367087  -2.1755287312
	    H  -0.2082646487  -0.8519800430  -2.1904349027
	    C  -0.6103490864   0.3875436686   0.2738029821
	    H   0.6469733399  -1.3540049375   0.0820182665
	    H   1.5268057484   0.1738880628   0.0841603101
	    C  -0.6941099292   0.2926393780   1.8122487317
	    H  -0.5629752186   1.4258492194  -0.0167456278
	    H  -1.4865177534  -0.0693672538  -0.1598357789
	    H  -1.5679518730   0.8099105440   2.1737216905
	    H  -0.7519794179  -0.7402637405   2.1116650492
	    H   0.1816228914   0.7375661824   2.2541069024


    Structure for next step:
    Molecular point group: c1
    Full point group: C1

    Geometry (in Angstrom), charge = 0, multiplicity = 1:

    C       
    C             1    1.544999
    H             1    1.077086      2  109.898198
    H             1    1.077769      2  110.330090      3  120.048998
    H             1    1.076967      2  109.876307      3 -119.907519
    C             2    1.545636      1  111.452403      3   59.917571
    H             2    1.079148      1  108.747977      6  120.432224
    H             2    1.079231      1  108.706490      6 -120.363234
    C             6    1.543644      2  111.497068      1    dihedral
    H             6    1.079232      2  108.588366      9  120.429029
    H             6    1.079112      2  108.617206      9 -120.490383
    H             9    1.077883      6  110.408490     10   59.365577
    H             9    1.076981      6  109.813421     12  120.058874
    H             9    1.077082      6  109.836655     12 -120.064512

    dihedral  =  175.1452360827


Scratch directory: /tmp/
gradient() will perform analytic gradient computation.
   => Libint2 <=

    Primary   basis highest AM E, G, H:  5, 4, 3
    Auxiliary basis highest AM E, G, H:  6, 5, 4
    Onebody   basis highest AM E, G, H:  6, 5, 4
    Solid Harmonics ordering:            Gaussian

*** tstart() called on Barrys-MacBook-Pro.local
*** at Thu May  9 11:51:05 2024

   => Loading Basis Set <=

    Name: STO-3G
    Role: ORBITAL
    Keyword: BASIS
    atoms 1-2, 6, 9       entry C          line    61 file /Users/blink/psi4conda/share/psi4/basis/sto-3g.gbs 
    atoms 3-5, 7-8, 10-14 entry H          line    19 file /Users/blink/psi4conda/share/psi4/basis/sto-3g.gbs 


         ---------------------------------------------------------
                                   SCF
               by Justin Turney, Rob Parrish, Andy Simmonett
                          and Daniel G. A. Smith
                              RHF Reference
                        4 Threads,    953 MiB Core
         ---------------------------------------------------------

  ==> Geometry <==

    Molecular point group: c1
    Full point group: C1

    Geometry (in Angstrom), charge = 0, multiplicity = 1:

       Center              X                  Y                   Z               Mass       
    ------------   -----------------  -----------------  -----------------  -----------------
         C            0.638609266823    -0.333629919366    -1.825683988561    12.000000000000
         C            0.638609266823    -0.333629919366    -0.280685240801    12.000000000000
         H            0.638609266823     0.679152566892    -2.192270099750     1.007825032230
         H            1.513409396421    -0.839693983899    -2.200131448788     1.007825032230
         H           -0.239326698682    -0.838618812701    -2.191842692091     1.007825032230
         C           -0.606181688773     0.387440225959     0.284597480643    12.000000000000
         H            0.644847938435    -1.355500461655     0.066159298613     1.007825032230
         H            1.527825655962     0.170578342692     0.065445878711     1.007825032230
         C           -0.669780640455     0.283809020911     1.823445677987    12.000000000000
         H           -0.560484063909     1.427311198228    -0.000571386887     1.007825032230
         H           -1.488964312388    -0.065188437432    -0.140024506169     1.007825032230
         H           -1.537680111792     0.800741009604     2.199429359170     1.007825032230
         H           -0.725844329053    -0.750689754000     2.117651402849     1.007825032230
         H            0.212649847397     0.724407133019     2.256223005337     1.007825032230

  Running in c1 symmetry.

  Rotational constants: A =      0.77647  B =      0.12114  C =      0.11368 [cm^-1]
  Rotational constants: A =  23277.90506  B =   3631.75834  C =   3408.11237 [MHz]
  Nuclear repulsion =  130.788960390792170

  Charge       = 0
  Multiplicity = 1
  Electrons    = 34
  Nalpha       = 17
  Nbeta        = 17

  ==> Algorithm <==

  SCF Algorithm Type is DIRECT.
  DIIS enabled.
  MOM disabled.
  Fractional occupation disabled.
  Guess Type is READ.
  Energy threshold   = 1.00e-08
  Density threshold  = 1.00e-08
  Integral threshold = 1.00e-08

  ==> Primary Basis <==

  -AO BASIS SET INFORMATION:
    Name                   = STO-3G
    Blend                  = STO-3G
    Total number of shells = 22
    Number of primitives   = 66
    Number of AO           = 30
    Number of SO           = 30
    Maximum AM             = 1
    Spherical Harmonics    = TRUE

  -Contraction Scheme:
    Atom   Type   All Primitives // Shells:
   ------ ------ --------------------------
       1     C     6s 3p // 2s 1p 
       2     C     6s 3p // 2s 1p 
       3     H     3s // 1s 
       4     H     3s // 1s 
       5     H     3s // 1s 
       6     C     6s 3p // 2s 1p 
       7     H     3s // 1s 
       8     H     3s // 1s 
       9     C     6s 3p // 2s 1p 
      10     H     3s // 1s 
      11     H     3s // 1s 
      12     H     3s // 1s 
      13     H     3s // 1s 
      14     H     3s // 1s 

   => Loading Basis Set <=

    Name: (STO-3G AUX)
    Role: JKFIT
    Keyword: DF_BASIS_SCF
    atoms 1-2, 6, 9       entry C          line   198 file /Users/blink/psi4conda/share/psi4/basis/def2-universal-jkfit.gbs 
    atoms 3-5, 7-8, 10-14 entry H          line    18 file /Users/blink/psi4conda/share/psi4/basis/def2-universal-jkfit.gbs 

   => Loading Basis Set <=

    Name: STO-3G
    Role: ORBITAL
    Keyword: BASIS
    atoms 1-2, 6, 9       entry C          line    61 file /Users/blink/psi4conda/share/psi4/basis/sto-3g.gbs 
    atoms 3-5, 7-8, 10-14 entry H          line    19 file /Users/blink/psi4conda/share/psi4/basis/sto-3g.gbs 

  Reading orbitals from file /tmp/butane_2.default.44366.180.npy, no projection.

  Starting with a DF guess...

  ==> Integral Setup <==

  DFHelper Memory: AOs need 0.005 GiB; user supplied 0.698 GiB. 
  Using in-core AOs.

  ==> MemDFJK: Density-Fitted J/K Matrices <==

    J tasked:                   Yes
    K tasked:                   Yes
    wK tasked:                   No
    OpenMP threads:               4
    Memory [MiB]:               715
    Algorithm:                 Core
    Schwarz Cutoff:           1E-08
    Mask sparsity (%):       0.6667
    Fitting Condition:        1E-10

   => Auxiliary Basis Set <=

  -AO BASIS SET INFORMATION:
    Name                   = (STO-3G AUX)
    Blend                  = DEF2-UNIVERSAL-JKFIT
    Total number of shells = 160
    Number of primitives   = 212
    Number of AO           = 556
    Number of SO           = 480
    Maximum AM             = 4
    Spherical Harmonics    = TRUE

  -Contraction Scheme:
    Atom   Type   All Primitives // Shells:
   ------ ------ --------------------------
       1     C     14s 10p 6d 2f 1g // 10s 8p 5d 1f 1g 
       2     C     14s 10p 6d 2f 1g // 10s 8p 5d 1f 1g 
       3     H     4s 2p 2d // 2s 2p 2d 
       4     H     4s 2p 2d // 2s 2p 2d 
       5     H     4s 2p 2d // 2s 2p 2d 
       6     C     14s 10p 6d 2f 1g // 10s 8p 5d 1f 1g 
       7     H     4s 2p 2d // 2s 2p 2d 
       8     H     4s 2p 2d // 2s 2p 2d 
       9     C     14s 10p 6d 2f 1g // 10s 8p 5d 1f 1g 
      10     H     4s 2p 2d // 2s 2p 2d 
      11     H     4s 2p 2d // 2s 2p 2d 
      12     H     4s 2p 2d // 2s 2p 2d 
      13     H     4s 2p 2d // 2s 2p 2d 
      14     H     4s 2p 2d // 2s 2p 2d 

  Minimum eigenvalue in the overlap matrix is 1.9841908568E-01.
  Reciprocal condition number of the overlap matrix is 7.5996392925E-02.
    Using symmetric orthogonalization.

  ==> Pre-Iterations <==

  SCF Guess: Orbitals guess was supplied from a previous computation.

   -------------------------------------------------------
    Irrep   Nso     Nmo     Nalpha   Nbeta   Ndocc  Nsocc
   -------------------------------------------------------
     A         30      30      17      17      17       0
   -------------------------------------------------------
    Total      30      30      17      17      17       0
   -------------------------------------------------------

  ==> Iterations <==

                           Total Energy        Delta E     RMS |[F,P]|

   @DF-RHF iter   0:  -155.20857447245544   -1.55209e+02   8.38652e-03 
   @DF-RHF iter   1:  -155.46488223061399   -2.56308e-01   1.15311e-03 DIIS/ADIIS
   @DF-RHF iter   2:  -155.46574628396172   -8.64053e-04   2.21969e-04 DIIS/ADIIS
   @DF-RHF iter   3:  -155.46577413859890   -2.78546e-05   4.32713e-05 DIIS
   @DF-RHF iter   4:  -155.46577579584738   -1.65725e-06   2.64012e-06 DIIS
   @DF-RHF iter   5:  -155.46577580256530   -6.71793e-09   5.27746e-07 DIIS
   @DF-RHF iter   6:  -155.46577580284554   -2.80238e-10   1.05827e-07 DIIS
   @DF-RHF iter   7:  -155.46577580285484   -9.29390e-12   9.26340e-09 DIIS

  DF guess converged.

  ==> DirectJK: Integral-Direct J/K Matrices <==

    J tasked:                  Yes
    K tasked:                  Yes
    wK tasked:                  No
    Integrals threads:           4
    Screening Type:           CSAM
    Screening Cutoff:        1E-08
    Incremental Fock:           No

   @RHF iter   8:  -155.46526210800812   -1.55465e+02   4.36392e-06 DIIS
   @RHF iter   9:  -155.46526211632246   -8.31434e-09   6.97510e-07 DIIS
   @RHF iter  10:  -155.46526211656337   -2.40902e-10   1.14111e-07 DIIS
   @RHF iter  11:  -155.46526211657391   -1.05445e-11   1.93200e-08 DIIS
   @RHF iter  12:  -155.46526211657422   -3.12639e-13   1.07961e-09 DIIS
  Energy and wave function converged.


  ==> Post-Iterations <==

    Orbital Energies [Eh]
    ---------------------

    Doubly Occupied:                                                      

       1A    -11.037203     2A    -11.036671     3A    -11.030667  
       4A    -11.030080     5A     -1.030204     6A     -0.944715  
       7A     -0.829329     8A     -0.760498     9A     -0.617480  
      10A     -0.557476    11A     -0.547654    12A     -0.540338  
      13A     -0.484773    14A     -0.474951    15A     -0.440201  
      16A     -0.429006    17A     -0.412662  

    Virtual:                                                              

      18A      0.604911    19A      0.632610    20A      0.649266  
      21A      0.686981    22A      0.702700    23A      0.740882  
      24A      0.755928    25A      0.762995    26A      0.780254  
      27A      0.780816    28A      0.801572    29A      0.805082  
      30A      0.845301  

    Final Occupation by Irrep:
              A 
    DOCC [    17 ]
    NA   [    17 ]
    NB   [    17 ]

  @RHF Final Energy:  -155.46526211657422

   => Energetics <=

    Nuclear Repulsion Energy =            130.7889603907921696
    One-Electron Energy =                -468.1006267898645206
    Two-Electron Energy =                 181.8464042824981277
    Total Energy =                       -155.4652621165742232

Computation Completed


Properties will be evaluated at   0.000000,   0.000000,   0.000000 [a0]

Properties computed using the SCF density matrix


 Multipole Moments:

 ------------------------------------------------------------------------------------
     Multipole            Electronic (a.u.)      Nuclear  (a.u.)        Total (a.u.)
 ------------------------------------------------------------------------------------

 L = 1.  Multiply by 2.5417464519 to convert [e a0] to [Debye]
 Dipole X            :          0.0145826           -0.0140221            0.0005605
 Dipole Y            :          0.0464286           -0.0445309            0.0018976
 Dipole Z            :          0.0202256           -0.0186849            0.0015407
 Magnitude           :                                                    0.0025078

 ------------------------------------------------------------------------------------

*** tstop() called on Barrys-MacBook-Pro.local at Thu May  9 11:51:06 2024
Module time:
	user time   =       2.95 seconds =       0.05 minutes
	system time =       0.04 seconds =       0.00 minutes
	total time  =          1 seconds =       0.02 minutes
Total time:
	user time   =     123.14 seconds =       2.05 minutes
	system time =       1.87 seconds =       0.03 minutes
	total time  =         37 seconds =       0.62 minutes

*** tstart() called on Barrys-MacBook-Pro.local
*** at Thu May  9 11:51:06 2024


         ------------------------------------------------------------
                                   SCF GRAD                          
                          Rob Parrish, Justin Turney,                
                       Andy Simmonett, and Alex Sokolov              
         ------------------------------------------------------------

  ==> Geometry <==

    Molecular point group: c1
    Full point group: C1

    Geometry (in Angstrom), charge = 0, multiplicity = 1:

       Center              X                  Y                   Z               Mass       
    ------------   -----------------  -----------------  -----------------  -----------------
         C            0.638609266823    -0.333629919366    -1.825683988561    12.000000000000
         C            0.638609266823    -0.333629919366    -0.280685240801    12.000000000000
         H            0.638609266823     0.679152566892    -2.192270099750     1.007825032230
         H            1.513409396421    -0.839693983899    -2.200131448788     1.007825032230
         H           -0.239326698682    -0.838618812701    -2.191842692091     1.007825032230
         C           -0.606181688773     0.387440225959     0.284597480643    12.000000000000
         H            0.644847938435    -1.355500461655     0.066159298613     1.007825032230
         H            1.527825655962     0.170578342692     0.065445878711     1.007825032230
         C           -0.669780640455     0.283809020911     1.823445677987    12.000000000000
         H           -0.560484063909     1.427311198228    -0.000571386887     1.007825032230
         H           -1.488964312388    -0.065188437432    -0.140024506169     1.007825032230
         H           -1.537680111792     0.800741009604     2.199429359170     1.007825032230
         H           -0.725844329053    -0.750689754000     2.117651402849     1.007825032230
         H            0.212649847397     0.724407133019     2.256223005337     1.007825032230

  Nuclear repulsion =  130.788960390792170

  ==> Basis Set <==

  -AO BASIS SET INFORMATION:
    Name                   = STO-3G
    Blend                  = STO-3G
    Total number of shells = 22
    Number of primitives   = 66
    Number of AO           = 30
    Number of SO           = 30
    Maximum AM             = 1
    Spherical Harmonics    = TRUE

  -Contraction Scheme:
    Atom   Type   All Primitives // Shells:
   ------ ------ --------------------------
       1     C     6s 3p // 2s 1p 
       2     C     6s 3p // 2s 1p 
       3     H     3s // 1s 
       4     H     3s // 1s 
       5     H     3s // 1s 
       6     C     6s 3p // 2s 1p 
       7     H     3s // 1s 
       8     H     3s // 1s 
       9     C     6s 3p // 2s 1p 
      10     H     3s // 1s 
      11     H     3s // 1s 
      12     H     3s // 1s 
      13     H     3s // 1s 
      14     H     3s // 1s 

  ==> DirectJKGrad: Integral-Direct SCF Gradients <==

    Gradient:                    1
    J tasked:                  Yes
    K tasked:                  Yes
    wK tasked:                  No
    Integrals threads:           4
    Schwarz Cutoff:          1E-08


  -Nuclear Gradient:
     Atom            X                  Y                   Z
    ------   -----------------  -----------------  -----------------
       1       -1.169528134588     0.643493662762     5.783008171584
       2       -3.783563562949     2.090035268778    -0.877326515424
       3       -0.159143286226    -1.747560332660     1.244943412573
       4       -1.629689607052     0.939690787760     1.116005791714
       5        1.430782369274     1.005001046622     1.249330861381
       6        3.597297973358    -2.419008148486     0.840961629079
       7       -0.371333274250     2.175480144672    -0.645069084745
       8       -2.067803770168    -0.785729260847    -0.659300798224
       9        1.358621953178    -0.342296775753    -5.773174775177
      10        0.247094227318    -2.231777262821     0.532481463318
      11        2.058991958783     0.652133051989     0.786692262281
      12        1.631317536246    -0.935195836646    -1.116406103730
      13        0.279705723185     1.815035652339    -1.116701207472
      14       -1.422750106108    -0.859301997709    -1.365445107156


  -Core Hamiltonian Gradient:
     Atom            X                  Y                   Z
    ------   -----------------  -----------------  -----------------
       1        2.452371950702    -1.354326846007   -10.953443934985
       2        6.880130331256    -3.775604205123     1.252780591080
       3        0.309952551548     5.043788836980    -2.968064201328
       4        4.493511434465    -2.594234204461    -2.722446028553
       5       -4.212759097398    -2.776099350408    -2.975486549766
       6       -6.608068774515     4.422769221656    -1.088593275528
       7        0.667656792381    -6.059938306287     1.842990746264
       8        5.574209356342     2.489832548323     1.851634485227
       9       -2.796399046121     0.788196250122    10.944713464190
      10       -0.310890699637     6.182974633017    -1.524827463115
      11       -5.534808278525    -2.149328846285    -2.292150170291
      12       -4.485275189781     2.602086461952     2.725886498103
      13       -0.633419759487    -5.211012811511     2.598697197741
      14        4.203788428769     2.390896618034     3.308308640960


  -Overlap Gradient:
     Atom            X                  Y                   Z
    ------   -----------------  -----------------  -----------------
       1       -0.000911095363     0.000623125061    -0.039825802785
       2        0.033200968441    -0.018927718903     0.020221396726
       3        0.000117453225    -0.162523280588     0.058563797674
       4       -0.140350333950     0.081215466463     0.061023295592
       5        0.140980118590     0.080920907238     0.058438557803
       6       -0.028152524278     0.020120722075    -0.024586371816
       7        0.000044373841     0.163777643261    -0.055085326581
       8       -0.142057190781    -0.081965158331    -0.054532058427
       9       -0.000633179413    -0.003145254463     0.038872011482
      10       -0.009102286960    -0.166502931865     0.045658406585
      11        0.140437273210     0.073843195843     0.068562602055
      12        0.139342716181    -0.082909415809    -0.061339031277
      13        0.008865681063     0.166119071507    -0.046842434240
      14       -0.141781973806    -0.070646371490    -0.069129042788


  -Coulomb Gradient:
     Atom            X                  Y                   Z
    ------   -----------------  -----------------  -----------------
       1       -1.285361030671     0.712057046938     5.132331350335
       2       -3.066459995699     1.668023808923    -0.351056113480
       3       -0.150819318985    -3.447022459510     1.779629195633
       4       -2.993580317087     1.729602180736     1.663450642908
       5        2.912737435055     1.846372314216     1.782681480907
       6        2.983525686831    -1.984564519929     0.221311983663
       7       -0.298946574197     4.035034514763    -1.249940134514
       8       -3.638186244183    -1.776768933384    -1.244446471415
       9        1.438792554960    -0.450245684540    -5.134209967949
      10        0.058956809499    -4.104420128145     1.035288647175
      11        3.606815757105     1.562228109103     1.568596748828
      12        2.982615930160    -1.743377912923    -1.666633112891
      13        0.362181345669     3.550138688297    -1.527787208178
      14       -2.912272038457    -1.597057024544    -2.009217041023


  -Exchange Gradient:
     Atom            X                  Y                   Z
    ------   -----------------  -----------------  -----------------
       1        0.002572061399    -0.001763712376     0.063779829980
       2       -0.052641120613     0.030176207155    -0.031190944715
       3        0.000107907655     0.306791102662    -0.110096981774
       4        0.264620580943    -0.153144310005    -0.114155789944
       5       -0.265974358292    -0.153047783786    -0.109982660186
       6        0.043139838849    -0.031002531535     0.040432080647
       7       -0.000947835608    -0.307776607711     0.102174242669
       8        0.266449447272     0.154839203041     0.101140256253
       9        0.000169677113     0.005469246204    -0.062446410158
      10        0.018154144875     0.312583019752    -0.084658786817
      11       -0.263363664140    -0.139650250400    -0.127745416329
      12       -0.262564741907     0.156303338825     0.114633041422
      13       -0.017088997407    -0.313425738990     0.088071016046
      14        0.267367059860     0.133648817166     0.130046522906


  -Total Gradient:
     Atom            X                  Y                   Z
    ------   -----------------  -----------------  -----------------
       1       -0.000856248521     0.000083276377    -0.014150385871
       2        0.010666620436    -0.006296639169     0.013428414187
       3        0.000215307217    -0.006526133117     0.004975222777
       4       -0.005488242680     0.003129920492     0.003877911718
       5        0.005766467228     0.003147133882     0.004981690139
       6       -0.012257799755     0.008314743782    -0.010473953956
       7       -0.003526517833     0.006577388697    -0.004929556907
       8       -0.007388401517     0.000208398801    -0.005504586587
       9        0.000551959717    -0.002022218430     0.013754322388
      10        0.004212195096    -0.007142670062     0.003942267146
      11        0.008073046432    -0.000774739750     0.003956026543
      12        0.005436250899    -0.003093364601    -0.003858708373
      13        0.000243993023     0.006854861642    -0.004562636103
      14       -0.005648629743    -0.002459958544    -0.005436027101


*** tstop() called on Barrys-MacBook-Pro.local at Thu May  9 11:51:06 2024
Module time:
	user time   =       0.45 seconds =       0.01 minutes
	system time =       0.00 seconds =       0.00 minutes
	total time  =          0 seconds =       0.00 minutes
Total time:
	user time   =     123.59 seconds =       2.06 minutes
	system time =       1.87 seconds =       0.03 minutes
	total time  =         37 seconds =       0.62 minutes

    			-----------------------------------------

    			 OPTKING 3.0: for geometry optimizations 

    			     By R.A. King, Bethel University     

    			        with contributions from          

    			    A.V. Copan, J. Cayton, A. Heide      

    			-----------------------------------------

    
	                            ===> Fragment 1 <== 

	 Z (Atomic Numbers)          Masses                          Geom                  
	       6.000000            12.000000          1.20679662 -0.63046917 -3.45004273   
	       6.000000            12.000000          1.20679662 -0.63046917 -0.53041823   
	       1.000000             1.007825          1.20679662  1.28341235 -4.14279008   
	       1.000000             1.007825          2.85992927 -1.58679166 -4.15764588   
	       1.000000             1.007825         -0.45226192 -1.58475988 -4.14198240   
	       6.000000            12.000000         -1.14551737  0.73215592  0.53781129   
	       1.000000             1.007825          1.21858600 -2.56152464  0.12502296   
	       1.000000             1.007825          2.88717206  0.32234635  0.12367479   
	       6.000000            12.000000         -1.26570197  0.53632132  3.44581294   
	       1.000000             1.007825         -1.05916138  2.69722726 -0.00107976   
	       1.000000             1.007825         -2.81373476 -0.12318829 -0.26460797   
	       1.000000             1.007825         -2.90579428  1.51318121  4.15631912   
	       1.000000             1.007825         -1.37164699 -1.41859804  4.00178118   
	       1.000000             1.007825          0.40184997  1.36893108  4.26364356   

	 - Coordinate -           - BOHR/RAD -       - ANG/DEG -
	 R(1,2)           =         2.919624           1.544999
	 R(1,3)           =         2.035397           1.077086
	 R(1,4)           =         2.036689           1.077769
	 R(1,5)           =         2.035172           1.076967
	 R(2,6)           =         2.920829           1.545636
	 R(2,7)           =         2.039293           1.079148
	 R(2,8)           =         2.039450           1.079231
	 R(6,9)           =         2.917065           1.543644
	 R(6,10)          =         2.039452           1.079232
	 R(6,11)          =         2.039225           1.079112
	 R(9,12)          =         2.036904           1.077883
	 R(9,13)          =         2.035199           1.076981
	 R(9,14)          =         2.035391           1.077082
	 B(1,2,6)         =         1.945211         111.452403
	 B(1,2,7)         =         1.898010         108.747977
	 B(1,2,8)         =         1.897286         108.706490
	 B(2,1,3)         =         1.918085         109.898198
	 B(2,1,4)         =         1.925623         110.330090
	 B(2,1,5)         =         1.917703         109.876307
	 B(2,6,9)         =         1.945991         111.497068
	 B(2,6,10)        =         1.895225         108.588366
	 B(2,6,11)        =         1.895728         108.617206
	 B(3,1,4)         =         1.899977         108.860669
	 B(3,1,5)         =         1.902008         108.977060
	 B(4,1,5)         =         1.900096         108.867472
	 B(6,2,7)         =         1.905900         109.200051
	 B(6,2,8)         =         1.905313         109.166373
	 B(6,9,12)        =         1.926992         110.408490
	 B(6,9,13)        =         1.916606         109.813421
	 B(6,9,14)        =         1.917011         109.836655
	 B(7,2,8)         =         1.911925         109.545230
	 B(9,6,10)        =         1.906933         109.259211
	 B(9,6,11)        =         1.907530         109.293409
	 B(10,6,11)       =         1.912204         109.561191
	 B(12,9,13)       =         1.900180         108.872285
	 B(12,9,14)       =         1.900050         108.864868
	 B(13,9,14)       =         1.902670         109.014983
	 D(1,2,6,9)       =         3.056861         175.145236
	 D(1,2,6,10)      =        -1.124441         -64.425735
	 D(1,2,6,11)      =         0.953907          54.654853
	 D(2,6,9,12)      =         3.131120         179.399938
	 D(2,6,9,13)      =        -1.056643         -60.541188
	 D(2,6,9,14)      =         1.035599          59.335425
	 D(3,1,2,6)       =         1.045759          59.917571
	 D(3,1,2,7)       =         3.147698         180.349795
	 D(3,1,2,8)       =        -1.054976         -60.445663
	 D(4,1,2,6)       =         3.141009         179.966569
	 D(4,1,2,7)       =        -1.040237         -59.601207
	 D(4,1,2,8)       =         1.040274          59.603335
	 D(5,1,2,6)       =        -1.047022         -59.989948
	 D(5,1,2,7)       =         1.054917          60.442276
	 D(5,1,2,8)       =         3.135428         179.646818
	 D(7,2,6,9)       =         0.959565          54.979012
	 D(7,2,6,10)      =         3.061448         175.408041
	 D(7,2,6,11)      =        -1.143389         -65.511371
	 D(8,2,6,9)       =        -1.130316         -64.762321
	 D(8,2,6,10)      =         0.971567          55.666708
	 D(8,2,6,11)      =         3.049916         174.747297
	 D(10,6,9,12)     =         1.036125          59.365577
	 D(10,6,9,13)     =         3.131547         179.424451
	 D(10,6,9,14)     =        -1.059396         -60.698936
	 D(11,6,9,12)     =        -1.056051         -60.507257
	 D(11,6,9,13)     =         1.039372          59.551617
	 D(11,6,9,14)     =         3.131613         179.428231


	        --- Internal Coordinate Step in ANG or DEG, aJ/ANG or AJ/DEG ---
	-------------------------------------------------------------------------------
	           Coordinate      Previous         Force          Change          New 
	           ----------      --------        ------          ------        ------
	               R(1,2)       1.54500       -0.00260       -0.00247       1.54253
	               R(1,3)       1.07709        0.06451        0.00721       1.08429
	               R(1,4)       1.07777        0.05991        0.00652       1.08429
	               R(1,5)       1.07697        0.06484        0.00726       1.08423
	               R(2,6)       1.54564        0.01337        0.00093       1.54656
	               R(2,7)       1.07915        0.06453        0.00715       1.08630
	               R(2,8)       1.07923        0.06390        0.00706       1.08629
	               R(6,9)       1.54364        0.00065       -0.00171       1.54193
	              R(6,10)       1.07923        0.06381        0.00705       1.08628
	              R(6,11)       1.07911        0.06456        0.00716       1.08627
	              R(9,12)       1.07788        0.05937        0.00644       1.08432
	              R(9,13)       1.07698        0.06462        0.00723       1.08421
	              R(9,14)       1.07708        0.06441        0.00720       1.08428
	             B(1,2,6)     111.45240        0.00011        0.81296     112.26536
	             B(1,2,7)     108.74798        0.00005        0.72996     109.47794
	             B(1,2,8)     108.70649        0.00005        0.69472     109.40121
	             B(2,1,3)     109.89820        0.00020        0.96274     110.86093
	             B(2,1,4)     110.33009        0.00007        0.22377     110.55386
	             B(2,1,5)     109.87631        0.00020        0.96215     110.83846
	             B(2,6,9)     111.49707        0.00010        0.80357     112.30064
	            B(2,6,10)     108.58837        0.00005        0.77514     109.36350
	            B(2,6,11)     108.61721        0.00006        0.85318     109.47038
	             B(3,1,4)     108.86067       -0.00015       -0.68101     108.17966
	             B(3,1,5)     108.97706       -0.00020       -0.86140     108.11566
	             B(4,1,5)     108.86747       -0.00015       -0.67807     108.18941
	             B(6,2,7)     109.20005       -0.00001        0.14060     109.34066
	             B(6,2,8)     109.16637       -0.00002        0.05424     109.22061
	            B(6,9,12)     110.40849        0.00007        0.20998     110.61847
	            B(6,9,13)     109.81342        0.00021        0.99243     110.80586
	            B(6,9,14)     109.83665        0.00021        0.99578     110.83243
	             B(7,2,8)     109.54523       -0.00017       -2.55231     106.99292
	            B(9,6,10)     109.25921       -0.00002       -0.00663     109.25258
	            B(9,6,11)     109.29341       -0.00002        0.02063     109.31404
	           B(10,6,11)     109.56119       -0.00017       -2.56505     106.99614
	           B(12,9,13)     108.87229       -0.00015       -0.68508     108.18721
	           B(12,9,14)     108.86487       -0.00015       -0.68831     108.17655
	           B(13,9,14)     109.01498       -0.00020       -0.89764     108.11735
	           D(1,2,6,9)     175.14524        0.00002        1.92485     177.07009
	          D(1,2,6,10)     -64.42573        0.00009        2.95546     -61.47027
	          D(1,2,6,11)      54.65485       -0.00005        0.80304      55.45789
	          D(2,6,9,12)     179.39994       -0.00000       -0.00341     179.39653
	          D(2,6,9,13)     -60.54119       -0.00001       -0.08127     -60.62246
	          D(2,6,9,14)      59.33543        0.00000        0.07608      59.41151
	           D(3,1,2,6)      59.91757        0.00000       -0.13061      59.78696
	           D(3,1,2,7)     180.34979        0.00008        1.06490     181.41469
	           D(3,1,2,8)     -60.44566       -0.00007       -1.18932     -61.63499
	           D(4,1,2,6)     179.96657       -0.00001       -0.21447     179.75210
	           D(4,1,2,7)     -59.60121        0.00008        0.98104     -58.62017
	           D(4,1,2,8)      59.60334       -0.00008       -1.27318      58.33016
	           D(5,1,2,6)     -59.98995       -0.00001       -0.29526     -60.28521
	           D(5,1,2,7)      60.44228        0.00007        0.90025      61.34252
	           D(5,1,2,8)     179.64682       -0.00008       -1.35397     178.29284
	           D(7,2,6,9)      54.97901       -0.00009        0.38492      55.36394
	          D(7,2,6,10)     175.40804       -0.00003        1.41554     176.82358
	          D(7,2,6,11)     -65.51137       -0.00017       -0.73689     -66.24826
	           D(8,2,6,9)     -64.76232        0.00013        3.35773     -61.40459
	          D(8,2,6,10)      55.66671        0.00020        4.38834      60.05505
	          D(8,2,6,11)     174.74730        0.00006        2.23592     176.98322
	         D(10,6,9,12)      59.36558       -0.00012       -1.49213      57.87345
	         D(10,6,9,13)     179.42445       -0.00012       -1.56999     177.85446
	         D(10,6,9,14)     -60.69894       -0.00011       -1.41264     -62.11157
	         D(11,6,9,12)     -60.50726        0.00012        1.60524     -58.90202
	         D(11,6,9,13)      59.55162        0.00012        1.52737      61.07899
	         D(11,6,9,14)     179.42823        0.00013        1.68473     181.11296
	-------------------------------------------------------------------------------

	                                 ==> Convergence Check <==                                  
    
	Measures of convergence in internal coordinates in au.
    
	Criteria marked as inactive (o), active & met (*), and active & unmet ( ).

	----------------------------------------------------------------------------------------------
	   Step    Total Energy     Delta E     Max Force     RMS Force      Max Disp      RMS Disp   
	----------------------------------------------------------------------------------------------
	  Convergence Criteria     1.00e-06 *    3.00e-04 *             o    1.20e-03 *             o
	----------------------------------------------------------------------------------------------
	     2    -155.46526212   -7.87e-02      7.87e-03      3.34e-03 o    7.66e-02      2.22e-02 o  ~
	----------------------------------------------------------------------------------------------

Next Geometry in Ang 
	Fragment 1 (Ang)

	    C   0.6465462152  -0.3262850675  -1.8337393302
	    C   0.6299594037  -0.3450448920  -0.2914091209
	    H   0.6550819046   0.6915422410  -2.2074366266
	    H   1.5279413411  -0.8326312014  -2.2111501088
	    H  -0.2283534549  -0.8254005856  -2.2349670542
	    C  -0.6099706038   0.3735090934   0.2900606331
	    H   0.6469174373  -1.3732974972   0.0585346874
	    H   1.5297147228   0.1332837303   0.0849776278
	    C  -0.6649244716   0.2927716139   1.8288957939
	    H  -0.5972850619   1.4163830167  -0.0136729953
	    H  -1.5117673330  -0.0672251284  -0.1252696076
	    H  -1.5374946567   0.8132717731   2.2076489578
	    H  -0.7164904105  -0.7387313799   2.1588235256
	    H   0.2164237614   0.7443424924   2.2704463582


    Structure for next step:
    Molecular point group: c1
    Full point group: C1

    Geometry (in Angstrom), charge = 0, multiplicity = 1:

    C       
    C             1    1.542533
    H             1    1.084295      2  110.860933
    H             1    1.084289      2  110.553863      3  119.965142
    H             1    1.084228      2  110.838458      3 -120.072168
    C             2    1.546562      1  112.265361      3   59.786959
    H             2    1.086302      1  109.477936      6  121.627734
    H             2    1.086290      1  109.401212      6 -121.421946
    C             6    1.541931      2  112.300643      1    dihedral
    H             6    1.086279      2  109.363501      9  121.459642
    H             6    1.086270      2  109.470382      9 -121.612195
    H             9    1.084321      6  110.618472     10   57.873452
    H             9    1.084209      6  110.805856     12  119.981008
    H             9    1.084278      6  110.832431     12 -119.985025

    dihedral  =  177.0700864016


Scratch directory: /tmp/
gradient() will perform analytic gradient computation.
   => Libint2 <=

    Primary   basis highest AM E, G, H:  5, 4, 3
    Auxiliary basis highest AM E, G, H:  6, 5, 4
    Onebody   basis highest AM E, G, H:  6, 5, 4
    Solid Harmonics ordering:            Gaussian

*** tstart() called on Barrys-MacBook-Pro.local
*** at Thu May  9 11:51:07 2024

   => Loading Basis Set <=

    Name: STO-3G
    Role: ORBITAL
    Keyword: BASIS
    atoms 1-2, 6, 9       entry C          line    61 file /Users/blink/psi4conda/share/psi4/basis/sto-3g.gbs 
    atoms 3-5, 7-8, 10-14 entry H          line    19 file /Users/blink/psi4conda/share/psi4/basis/sto-3g.gbs 


         ---------------------------------------------------------
                                   SCF
               by Justin Turney, Rob Parrish, Andy Simmonett
                          and Daniel G. A. Smith
                              RHF Reference
                        4 Threads,    953 MiB Core
         ---------------------------------------------------------

  ==> Geometry <==

    Molecular point group: c1
    Full point group: C1

    Geometry (in Angstrom), charge = 0, multiplicity = 1:

       Center              X                  Y                   Z               Mass       
    ------------   -----------------  -----------------  -----------------  -----------------
         C            0.628278382887    -0.344119685096    -1.835013329798    12.000000000000
         C            0.628278382887    -0.344119685096    -0.292479852703    12.000000000000
         H            0.628278382887     0.669096768611    -2.221131673226     1.007825032230
         H            1.507833151443    -0.851217642569    -2.215693959447     1.007825032230
         H           -0.248630722376    -0.851877176406    -2.220710323097     1.007825032230
         C           -0.608549738782     0.376108405384     0.293507368506    12.000000000000
         H            0.653562712822    -1.367940261850     0.069740788946     1.007825032230
         H            1.529868336240     0.142656915692     0.068364970649     1.007825032230
         C           -0.646675359958     0.313927280889     1.833712570815    12.000000000000
         H           -0.603763232850     1.415241500519    -0.023005758992     1.007825032230
         H           -1.512765208544    -0.073561234800    -0.106711075530     1.007825032230
         H           -1.517454506466     0.835232647032     2.215468377585     1.007825032230
         H           -0.690110072331    -0.713684259357     2.176696139709     1.007825032230
         H            0.237325227927     0.774664315298     2.260235973130     1.007825032230

  Running in c1 symmetry.

  Rotational constants: A =      0.77660  B =      0.11999  C =      0.11254 [cm^-1]
  Rotational constants: A =  23281.75778  B =   3597.31335  C =   3373.85072 [MHz]
  Nuclear repulsion =  130.269495282326830

  Charge       = 0
  Multiplicity = 1
  Electrons    = 34
  Nalpha       = 17
  Nbeta        = 17

  ==> Algorithm <==

  SCF Algorithm Type is DIRECT.
  DIIS enabled.
  MOM disabled.
  Fractional occupation disabled.
  Guess Type is READ.
  Energy threshold   = 1.00e-08
  Density threshold  = 1.00e-08
  Integral threshold = 1.00e-08

  ==> Primary Basis <==

  -AO BASIS SET INFORMATION:
    Name                   = STO-3G
    Blend                  = STO-3G
    Total number of shells = 22
    Number of primitives   = 66
    Number of AO           = 30
    Number of SO           = 30
    Maximum AM             = 1
    Spherical Harmonics    = TRUE

  -Contraction Scheme:
    Atom   Type   All Primitives // Shells:
   ------ ------ --------------------------
       1     C     6s 3p // 2s 1p 
       2     C     6s 3p // 2s 1p 
       3     H     3s // 1s 
       4     H     3s // 1s 
       5     H     3s // 1s 
       6     C     6s 3p // 2s 1p 
       7     H     3s // 1s 
       8     H     3s // 1s 
       9     C     6s 3p // 2s 1p 
      10     H     3s // 1s 
      11     H     3s // 1s 
      12     H     3s // 1s 
      13     H     3s // 1s 
      14     H     3s // 1s 

   => Loading Basis Set <=

    Name: (STO-3G AUX)
    Role: JKFIT
    Keyword: DF_BASIS_SCF
    atoms 1-2, 6, 9       entry C          line   198 file /Users/blink/psi4conda/share/psi4/basis/def2-universal-jkfit.gbs 
    atoms 3-5, 7-8, 10-14 entry H          line    18 file /Users/blink/psi4conda/share/psi4/basis/def2-universal-jkfit.gbs 

   => Loading Basis Set <=

    Name: STO-3G
    Role: ORBITAL
    Keyword: BASIS
    atoms 1-2, 6, 9       entry C          line    61 file /Users/blink/psi4conda/share/psi4/basis/sto-3g.gbs 
    atoms 3-5, 7-8, 10-14 entry H          line    19 file /Users/blink/psi4conda/share/psi4/basis/sto-3g.gbs 

  Reading orbitals from file /tmp/butane_2.default.44366.180.npy, no projection.

  Starting with a DF guess...

  ==> Integral Setup <==

  DFHelper Memory: AOs need 0.005 GiB; user supplied 0.698 GiB. 
  Using in-core AOs.

  ==> MemDFJK: Density-Fitted J/K Matrices <==

    J tasked:                   Yes
    K tasked:                   Yes
    wK tasked:                   No
    OpenMP threads:               4
    Memory [MiB]:               715
    Algorithm:                 Core
    Schwarz Cutoff:           1E-08
    Mask sparsity (%):       0.6667
    Fitting Condition:        1E-10

   => Auxiliary Basis Set <=

  -AO BASIS SET INFORMATION:
    Name                   = (STO-3G AUX)
    Blend                  = DEF2-UNIVERSAL-JKFIT
    Total number of shells = 160
    Number of primitives   = 212
    Number of AO           = 556
    Number of SO           = 480
    Maximum AM             = 4
    Spherical Harmonics    = TRUE

  -Contraction Scheme:
    Atom   Type   All Primitives // Shells:
   ------ ------ --------------------------
       1     C     14s 10p 6d 2f 1g // 10s 8p 5d 1f 1g 
       2     C     14s 10p 6d 2f 1g // 10s 8p 5d 1f 1g 
       3     H     4s 2p 2d // 2s 2p 2d 
       4     H     4s 2p 2d // 2s 2p 2d 
       5     H     4s 2p 2d // 2s 2p 2d 
       6     C     14s 10p 6d 2f 1g // 10s 8p 5d 1f 1g 
       7     H     4s 2p 2d // 2s 2p 2d 
       8     H     4s 2p 2d // 2s 2p 2d 
       9     C     14s 10p 6d 2f 1g // 10s 8p 5d 1f 1g 
      10     H     4s 2p 2d // 2s 2p 2d 
      11     H     4s 2p 2d // 2s 2p 2d 
      12     H     4s 2p 2d // 2s 2p 2d 
      13     H     4s 2p 2d // 2s 2p 2d 
      14     H     4s 2p 2d // 2s 2p 2d 

  Minimum eigenvalue in the overlap matrix is 2.0112595946E-01.
  Reciprocal condition number of the overlap matrix is 7.7610912196E-02.
    Using symmetric orthogonalization.

  ==> Pre-Iterations <==

  SCF Guess: Orbitals guess was supplied from a previous computation.

   -------------------------------------------------------
    Irrep   Nso     Nmo     Nalpha   Nbeta   Ndocc  Nsocc
   -------------------------------------------------------
     A         30      30      17      17      17       0
   -------------------------------------------------------
    Total      30      30      17      17      17       0
   -------------------------------------------------------

  ==> Iterations <==

                           Total Energy        Delta E     RMS |[F,P]|

   @DF-RHF iter   0:  -155.44384795854901   -1.55444e+02   1.49659e-03 
   @DF-RHF iter   1:  -155.46702297750340   -2.31750e-02   2.41155e-04 DIIS/ADIIS
   @DF-RHF iter   2:  -155.46707606701693   -5.30895e-05   7.15524e-05 DIIS
   @DF-RHF iter   3:  -155.46708121619903   -5.14918e-06   8.50491e-06 DIIS
   @DF-RHF iter   4:  -155.46708126654195   -5.03429e-08   7.88571e-07 DIIS
   @DF-RHF iter   5:  -155.46708126714890   -6.06946e-10   1.43001e-07 DIIS
   @DF-RHF iter   6:  -155.46708126716729   -1.83888e-11   2.29864e-08 DIIS
   @DF-RHF iter   7:  -155.46708126716771   -4.26326e-13   3.37950e-09 DIIS

  DF guess converged.

  ==> DirectJK: Integral-Direct J/K Matrices <==

    J tasked:                  Yes
    K tasked:                  Yes
[...]
        Angle 5-11-6:   89.957
        Angle 5-11-7:   58.887
        Angle 5-11-8:   65.012
        Angle 5-11-9:  126.171
        Angle 5-11-10:   90.144
        Angle 5-11-12:  150.140
        Angle 5-11-13:  121.367
        Angle 5-11-14:  115.311
        Angle 6-11-7:   59.333
        Angle 6-11-8:   28.503
        Angle 6-11-9:   42.306
        Angle 6-11-10:   36.434
        Angle 6-11-12:   60.580
        Angle 6-11-13:   59.727
        Angle 6-11-14:   28.912
        Angle 7-11-8:   34.958
        Angle 7-11-9:   72.896
        Angle 7-11-10:   89.989
        Angle 7-11-12:   98.297
        Angle 7-11-13:   62.481
        Angle 7-11-14:   67.679
        Angle 8-11-9:   61.785
        Angle 8-11-10:   55.031
        Angle 8-11-12:   85.240
        Angle 8-11-13:   67.846
        Angle 8-11-14:   50.299
        Angle 9-11-10:   66.093
        Angle 9-11-12:   25.745
        Angle 9-11-13:   25.474
        Angle 9-11-14:   13.406
        Angle 10-11-12:   69.389
        Angle 10-11-13:   90.108
        Angle 10-11-14:   55.090
        Angle 12-11-13:   41.168
        Angle 12-11-14:   35.032
        Angle 13-11-14:   35.018
        Angle 1-12-2:   13.118
        Angle 1-12-3:   12.724
        Angle 1-12-4:    6.871
        Angle 1-12-5:   12.719
        Angle 1-12-6:    3.231
        Angle 1-12-7:   26.494
        Angle 1-12-8:   26.494
        Angle 1-12-9:   38.308
        Angle 1-12-10:   27.874
        Angle 1-12-11:   27.870
        Angle 1-12-13:   63.518
        Angle 1-12-14:   63.505
        Angle 2-12-3:   22.968
        Angle 2-12-4:    6.247
        Angle 2-12-5:   22.947
        Angle 2-12-6:   16.349
        Angle 2-12-7:   16.633
        Angle 2-12-8:   16.634
        Angle 2-12-9:   25.190
        Angle 2-12-10:   37.723
        Angle 2-12-11:   37.727
        Angle 2-12-13:   52.948
        Angle 2-12-14:   52.898
        Angle 3-12-4:   17.624
        Angle 3-12-5:   20.588
        Angle 3-12-6:   11.144
        Angle 3-12-7:   38.511
        Angle 3-12-8:   30.094
        Angle 3-12-9:   46.747
        Angle 3-12-10:   15.250
        Angle 3-12-11:   32.926
        Angle 3-12-13:   75.534
        Angle 3-12-14:   64.646
        Angle 4-12-5:   17.628
        Angle 4-12-6:   10.102
        Angle 4-12-7:   20.917
        Angle 4-12-8:   20.895
        Angle 4-12-9:   31.437
        Angle 4-12-10:   32.768
        Angle 4-12-11:   32.791
        Angle 4-12-13:   57.910
        Angle 4-12-14:   57.858
        Angle 5-12-6:   11.138
        Angle 5-12-7:   30.061
        Angle 5-12-8:   38.497
        Angle 5-12-9:   46.677
        Angle 5-12-10:   32.968
        Angle 5-12-11:   15.259
        Angle 5-12-13:   64.566
        Angle 5-12-14:   75.486
        Angle 6-12-7:   29.297
        Angle 6-12-8:   29.302
        Angle 6-12-9:   41.538
        Angle 6-12-10:   25.854
        Angle 6-12-11:   25.839
        Angle 6-12-13:   66.205
        Angle 6-12-14:   66.205
        Angle 7-12-8:   26.787
        Angle 7-12-9:   20.120
        Angle 7-12-10:   53.685
        Angle 7-12-11:   40.982
        Angle 7-12-13:   37.070
        Angle 7-12-14:   55.431
        Angle 8-12-9:   20.239
        Angle 8-12-10:   40.964
        Angle 8-12-11:   53.686
        Angle 8-12-13:   55.560
        Angle 8-12-14:   37.048
        Angle 9-12-10:   59.861
        Angle 9-12-11:   59.802
        Angle 9-12-13:   35.881
        Angle 9-12-14:   35.881
        Angle 10-12-11:   41.148
        Angle 10-12-13:   90.608
        Angle 10-12-14:   70.101
        Angle 11-12-13:   70.023
        Angle 11-12-14:   90.569
        Angle 13-12-14:   59.974
        Angle 1-13-2:    9.440
        Angle 1-13-3:   11.957
        Angle 1-13-4:   10.708
        Angle 1-13-5:   14.059
        Angle 1-13-6:   28.704
        Angle 1-13-7:   24.219
        Angle 1-13-8:   29.374
        Angle 1-13-9:   66.141
        Angle 1-13-10:   40.882
        Angle 1-13-11:   38.892
        Angle 1-13-12:   94.739
        Angle 1-13-14:   78.048
        Angle 2-13-3:   14.320
        Angle 2-13-4:    8.572
        Angle 2-13-5:   23.296
        Angle 2-13-6:   32.935
        Angle 2-13-7:   22.703
        Angle 2-13-8:   20.129
        Angle 2-13-9:   65.373
        Angle 2-13-10:   42.882
        Angle 2-13-11:   47.439
        Angle 2-13-12:   97.184
        Angle 2-13-14:   71.776
        Angle 3-13-4:   20.812
        Angle 3-13-5:   21.524
        Angle 3-13-6:   18.616
        Angle 3-13-7:   35.304
        Angle 3-13-8:   28.227
        Angle 3-13-9:   54.184
        Angle 3-13-10:   29.368
        Angle 3-13-11:   36.120
        Angle 3-13-12:   83.650
        Angle 3-13-14:   68.493
        Angle 4-13-5:   20.875
        Angle 4-13-6:   38.891
        Angle 4-13-7:   14.598
        Angle 4-13-8:   25.575
        Angle 4-13-9:   73.688
        Angle 4-13-10:   50.148
        Angle 4-13-11:   48.918
        Angle 4-13-12:  104.462
        Angle 4-13-14:   79.657
        Angle 5-13-6:   30.813
        Angle 5-13-7:   28.752
        Angle 5-13-8:   43.387
        Angle 5-13-9:   72.009
        Angle 5-13-10:   44.730
        Angle 5-13-11:   29.881
        Angle 5-13-12:   94.558
        Angle 5-13-14:   90.016
        Angle 6-13-7:   52.922
        Angle 6-13-8:   43.481
        Angle 6-13-9:   41.450
        Angle 6-13-10:   13.987
        Angle 6-13-11:   25.580
        Angle 6-13-12:   66.100
        Angle 6-13-14:   66.173
        Angle 7-13-8:   33.894
        Angle 7-13-9:   88.075
        Angle 7-13-10:   64.673
        Angle 7-13-11:   58.632
        Angle 7-13-12:  118.878
        Angle 7-13-14:   89.831
        Angle 8-13-9:   61.299
        Angle 8-13-10:   47.591
        Angle 8-13-11:   64.346
        Angle 8-13-12:   96.918
        Angle 8-13-14:   55.936
        Angle 9-13-10:   27.478
        Angle 9-13-11:   58.850
        Angle 9-13-12:   35.882
        Angle 9-13-14:   35.913
        Angle 10-13-11:   34.845
        Angle 10-13-12:   54.359
        Angle 10-13-14:   55.090
        Angle 11-13-12:   68.809
        Angle 11-13-14:   89.935
        Angle 12-13-14:   60.013
        Angle 1-14-2:    9.396
        Angle 1-14-3:   14.055
        Angle 1-14-4:   10.721
        Angle 1-14-5:   11.955
        Angle 1-14-6:   28.717
        Angle 1-14-7:   29.360
        Angle 1-14-8:   24.218
        Angle 1-14-9:   66.162
        Angle 1-14-10:   38.930
        Angle 1-14-11:   40.871
        Angle 1-14-12:   94.752
        Angle 1-14-13:   78.074
        Angle 2-14-3:   23.250
        Angle 2-14-4:    8.576
        Angle 2-14-5:   14.275
        Angle 2-14-6:   32.961
        Angle 2-14-7:   20.160
        Angle 2-14-8:   22.716
        Angle 2-14-9:   65.447
        Angle 2-14-10:   47.449
        Angle 2-14-11:   42.891
        Angle 2-14-12:   97.238
        Angle 2-14-13:   71.870
        Angle 3-14-4:   20.885
        Angle 3-14-5:   21.524
        Angle 3-14-6:   30.737
        Angle 3-14-7:   43.371
        Angle 3-14-8:   28.748
        Angle 3-14-9:   71.938
        Angle 3-14-10:   29.859
        Angle 3-14-11:   44.650
        Angle 3-14-12:   94.470
        Angle 3-14-13:   89.985
        Angle 4-14-5:   20.817
        Angle 4-14-6:   38.933
        Angle 4-14-7:   25.583
        Angle 4-14-8:   14.589
        Angle 4-14-9:   73.767
        Angle 4-14-10:   48.953
        Angle 4-14-11:   50.172
        Angle 4-14-12:  104.519
        Angle 4-14-13:   79.756
        Angle 5-14-6:   18.686
        Angle 5-14-7:   28.172
        Angle 5-14-8:   35.299
        Angle 5-14-9:   54.207
        Angle 5-14-10:   36.225
        Angle 5-14-11:   29.381
        Angle 5-14-12:   83.701
        Angle 5-14-13:   68.461
        Angle 6-14-7:   43.552
        Angle 6-14-8:   52.934
        Angle 6-14-9:   41.450
        Angle 6-14-10:   25.563
        Angle 6-14-11:   13.987
        Angle 6-14-12:   66.099
        Angle 6-14-13:   66.172
        Angle 7-14-8:   33.941
        Angle 7-14-9:   61.441
        Angle 7-14-10:   64.396
        Angle 7-14-11:   47.638
        Angle 7-14-12:   97.057
        Angle 7-14-13:   56.062
        Angle 8-14-9:   88.163
        Angle 8-14-10:   58.607
        Angle 8-14-11:   64.680
        Angle 8-14-12:  118.905
        Angle 8-14-13:   90.003
        Angle 9-14-10:   58.789
        Angle 9-14-11:   27.474
        Angle 9-14-12:   35.882
        Angle 9-14-13:   35.912
        Angle 10-14-11:   34.845
        Angle 10-14-12:   68.733
        Angle 10-14-13:   89.891
        Angle 11-14-12:   54.398
        Angle 11-14-13:   55.047
        Angle 12-14-13:   60.013


    Molecular point group: c1
    Full point group: C1

    Geometry (in Angstrom), charge = 0, multiplicity = 1:

    C       
    C             1    1.541090
    H             1    1.085997      2  110.737654
    H             1    1.086006      2  110.607207      3  119.996707
    H             1    1.085996      2  110.737537      3 -120.006541
    C             2    1.545066      1  112.446725      3   59.916254
    H             2    1.088519      1  109.298807      6  121.516910
    H             2    1.088518      1  109.301738      6 -121.519264
    C             6    1.541169      2  112.445221      1    dihedral
    H             6    1.088515      2  109.250918      9  121.551235
    H             6    1.088516      2  109.250874      9 -121.547269
    H             9    1.085998      6  110.604358     10   58.384210
    H             9    1.085992      6  110.745577     12  119.994957
    H             9    1.085994      6  110.746117     12 -119.995065

    dihedral  =  179.9414294136

Molecule: Setting geometry variable dihedral to 60.000000

Scratch directory: /tmp/
   => Libint2 <=

    Primary   basis highest AM E, G, H:  5, 4, 3
    Auxiliary basis highest AM E, G, H:  6, 5, 4
    Onebody   basis highest AM E, G, H:  6, 5, 4
    Solid Harmonics ordering:            Gaussian

*** tstart() called on Barrys-MacBook-Pro.local
*** at Thu May  9 11:51:12 2024

   => Loading Basis Set <=

    Name: STO-3G
    Role: ORBITAL
    Keyword: BASIS
    atoms 1-2, 6, 9       entry C          line    61 file /Users/blink/psi4conda/share/psi4/basis/sto-3g.gbs 
    atoms 3-5, 7-8, 10-14 entry H          line    19 file /Users/blink/psi4conda/share/psi4/basis/sto-3g.gbs 


         ---------------------------------------------------------
                                   SCF
               by Justin Turney, Rob Parrish, Andy Simmonett
                          and Daniel G. A. Smith
                              RHF Reference
                        4 Threads,    953 MiB Core
         ---------------------------------------------------------

  ==> Geometry <==

    Molecular point group: c1
    Full point group: C1

    Geometry (in Angstrom), charge = 0, multiplicity = 1:

       Center              X                  Y                   Z               Mass       
    ------------   -----------------  -----------------  -----------------  -----------------
         C            0.960184506422    -0.187660325069    -1.325537738780    12.000000000000
         C            0.960184506422    -0.187660325069     0.215552714737    12.000000000000
         H            0.960184506422     0.827976561858    -1.710077888207     1.007825032230
         H            1.840544262042    -0.695868802312    -1.707767730470     1.007825032230
         H            0.080675577060    -0.695578931320    -1.710075340318     1.007825032230
         C           -0.275458102747     0.528148385718     0.805496234716    12.000000000000
         H            0.985879441761    -1.214691420732     0.575302422713     1.007825032230
         H            1.863902271717     0.300916703403     0.575354636040     1.007825032230
         C           -1.599694956028    -0.130342324469     0.371920294458    12.000000000000
         H           -0.209129033277     0.521874074814     1.891970503289     1.007825032230
         H           -0.271331848588     1.569937014565     0.490016607806     1.007825032230
         H           -2.446786255287     0.394279821277     0.803891143856     1.007825032230
         H           -1.703147807842    -0.110928075408    -0.708959019572     1.007825032230
         H           -1.639169732797    -1.165646884099     0.697449285509     1.007825032230

  Running in c1 symmetry.

  Rotational constants: A =      0.42515  B =      0.16467  C =      0.13734 [cm^-1]
  Rotational constants: A =  12745.71478  B =   4936.80019  C =   4117.20977 [MHz]
  Nuclear repulsion =  132.729545289946856

  Charge       = 0
  Multiplicity = 1
  Electrons    = 34
  Nalpha       = 17
  Nbeta        = 17

  ==> Algorithm <==

  SCF Algorithm Type is DIRECT.
  DIIS enabled.
  MOM disabled.
  Fractional occupation disabled.
  Guess Type is SAD.
  Energy threshold   = 1.00e-06
  Density threshold  = 1.00e-06
  Integral threshold = 1.00e-08

  ==> Primary Basis <==

  -AO BASIS SET INFORMATION:
    Name                   = STO-3G
    Blend                  = STO-3G
    Total number of shells = 22
    Number of primitives   = 66
    Number of AO           = 30
    Number of SO           = 30
    Maximum AM             = 1
    Spherical Harmonics    = TRUE

  -Contraction Scheme:
    Atom   Type   All Primitives // Shells:
   ------ ------ --------------------------
       1     C     6s 3p // 2s 1p 
       2     C     6s 3p // 2s 1p 
       3     H     3s // 1s 
       4     H     3s // 1s 
       5     H     3s // 1s 
       6     C     6s 3p // 2s 1p 
       7     H     3s // 1s 
       8     H     3s // 1s 
       9     C     6s 3p // 2s 1p 
      10     H     3s // 1s 
      11     H     3s // 1s 
      12     H     3s // 1s 
      13     H     3s // 1s 
      14     H     3s // 1s 

   => Loading Basis Set <=

    Name: (STO-3G AUX)
    Role: JKFIT
    Keyword: DF_BASIS_SCF
    atoms 1-2, 6, 9       entry C          line   198 file /Users/blink/psi4conda/share/psi4/basis/def2-universal-jkfit.gbs 
    atoms 3-5, 7-8, 10-14 entry H          line    18 file /Users/blink/psi4conda/share/psi4/basis/def2-universal-jkfit.gbs 

  Starting with a DF guess...

  ==> Integral Setup <==

  DFHelper Memory: AOs need 0.005 GiB; user supplied 0.698 GiB. 
  Using in-core AOs.

  ==> MemDFJK: Density-Fitted J/K Matrices <==

    J tasked:                   Yes
    K tasked:                   Yes
    wK tasked:                   No
    OpenMP threads:               4
    Memory [MiB]:               715
    Algorithm:                 Core
    Schwarz Cutoff:           1E-08
    Mask sparsity (%):       0.6667
    Fitting Condition:        1E-10

   => Auxiliary Basis Set <=

  -AO BASIS SET INFORMATION:
    Name                   = (STO-3G AUX)
    Blend                  = DEF2-UNIVERSAL-JKFIT
    Total number of shells = 160
    Number of primitives   = 212
    Number of AO           = 556
    Number of SO           = 480
    Maximum AM             = 4
    Spherical Harmonics    = TRUE

  -Contraction Scheme:
    Atom   Type   All Primitives // Shells:
   ------ ------ --------------------------
       1     C     14s 10p 6d 2f 1g // 10s 8p 5d 1f 1g 
       2     C     14s 10p 6d 2f 1g // 10s 8p 5d 1f 1g 
       3     H     4s 2p 2d // 2s 2p 2d 
       4     H     4s 2p 2d // 2s 2p 2d 
       5     H     4s 2p 2d // 2s 2p 2d 
       6     C     14s 10p 6d 2f 1g // 10s 8p 5d 1f 1g 
       7     H     4s 2p 2d // 2s 2p 2d 
       8     H     4s 2p 2d // 2s 2p 2d 
       9     C     14s 10p 6d 2f 1g // 10s 8p 5d 1f 1g 
      10     H     4s 2p 2d // 2s 2p 2d 
      11     H     4s 2p 2d // 2s 2p 2d 
      12     H     4s 2p 2d // 2s 2p 2d 
      13     H     4s 2p 2d // 2s 2p 2d 
      14     H     4s 2p 2d // 2s 2p 2d 

  Minimum eigenvalue in the overlap matrix is 1.9943798498E-01.
  Reciprocal condition number of the overlap matrix is 7.6502294900E-02.
    Using symmetric orthogonalization.

  ==> Pre-Iterations <==

  SCF Guess: Superposition of Atomic Densities via on-the-fly atomic UHF (no occupation information).

   -------------------------
    Irrep   Nso     Nmo    
   -------------------------
     A         30      30 
   -------------------------
    Total      30      30
   -------------------------

  ==> Iterations <==

                           Total Energy        Delta E     RMS |[F,P]|

   @DF-RHF iter SAD:  -151.52293448972227   -1.51523e+02   0.00000e+00 
   @DF-RHF iter   1:  -155.45705010862412   -3.93412e+00   3.46016e-03 DIIS/ADIIS
   @DF-RHF iter   2:  -155.46455534915043   -7.50524e-03   6.88477e-04 DIIS/ADIIS
   @DF-RHF iter   3:  -155.46493147824455   -3.76129e-04   1.57588e-04 DIIS/ADIIS
   @DF-RHF iter   4:  -155.46494857282238   -1.70946e-05   8.04797e-06 DIIS
   @DF-RHF iter   5:  -155.46494862381047   -5.09881e-08   1.07345e-06 DIIS
   @DF-RHF iter   6:  -155.46494862450220   -6.91728e-10   1.43789e-07 DIIS

  DF guess converged.

  ==> DirectJK: Integral-Direct J/K Matrices <==

    J tasked:                  Yes
    K tasked:                  Yes
    wK tasked:                  No
    Integrals threads:           4
    Screening Type:           CSAM
    Screening Cutoff:        1E-08
    Incremental Fock:           No

   @RHF iter   7:  -155.46443447029705   -1.55464e+02   4.37785e-06 DIIS
   @RHF iter   8:  -155.46443447863268   -8.33563e-09   7.54466e-07 DIIS
  Energy and wave function converged.


  ==> Post-Iterations <==

    Orbital Energies [Eh]
    ---------------------

    Doubly Occupied:                                                      

       1A    -11.038646     2A    -11.038337     3A    -11.030588  
       4A    -11.030569     5A     -1.029325     6A     -0.936370  
       7A     -0.840777     8A     -0.746601     9A     -0.595871  
      10A     -0.591631    11A     -0.546216    12A     -0.502478  
      13A     -0.499786    14A     -0.473859    15A     -0.431363  
      16A     -0.422927    17A     -0.418906  

    Virtual:                                                              

      18A      0.612466    19A      0.619067    20A      0.641704  
      21A      0.677539    22A      0.685291    23A      0.721636  
      24A      0.732586    25A      0.755159    26A      0.788052  
      27A      0.795264    28A      0.796771    29A      0.821324  
      30A      0.823357  

    Final Occupation by Irrep:
              A 
    DOCC [    17 ]
    NA   [    17 ]
    NB   [    17 ]

  @RHF Final Energy:  -155.46443447863268

   => Energetics <=

    Nuclear Repulsion Energy =            132.7295452899468557
    One-Electron Energy =                -472.0395110646889520
    Two-Electron Energy =                 183.8455312961093853
    Total Energy =                       -155.4644344786326826

Computation Completed


Properties will be evaluated at   0.000000,   0.000000,   0.000000 [a0]

Properties computed using the SCF density matrix


 Multipole Moments:

 ------------------------------------------------------------------------------------
     Multipole            Electronic (a.u.)      Nuclear  (a.u.)        Total (a.u.)
 ------------------------------------------------------------------------------------

 L = 1.  Multiply by 2.5417464519 to convert [e a0] to [Debye]
 Dipole X            :          0.5101078           -0.5047135            0.0053943
 Dipole Y            :          0.2536940           -0.2509886            0.0027054
 Dipole Z            :          0.7607966           -0.7526899            0.0081067
 Magnitude           :                                                    0.0101063

 ------------------------------------------------------------------------------------

*** tstop() called on Barrys-MacBook-Pro.local at Thu May  9 11:51:13 2024
Module time:
	user time   =       2.53 seconds =       0.04 minutes
	system time =       0.06 seconds =       0.00 minutes
	total time  =          1 seconds =       0.02 minutes
Total time:
	user time   =     146.32 seconds =       2.44 minutes
	system time =       2.20 seconds =       0.04 minutes
	total time  =         44 seconds =       0.73 minutes
