
    -----------------------------------------------------------------------
          Psi4: An Open-Source Ab Initio Electronic Structure Package
                               Psi4 1.9.1 release

                         Git: Rev {} zzzzzzz 


    D. G. A. Smith, L. A. Burns, A. C. Simmonett, R. M. Parrish,
    M. C. Schieber, R. Galvelis, P. Kraus, H. Kruse, R. Di Remigio,
    A. Alenaizan, A. M. James, S. Lehtola, J. P. Misiewicz, M. Scheurer,
    R. A. Shaw, J. B. Schriber, Y. Xie, Z. L. Glick, D. A. Sirianni,
    J. S. O'Brien, J. M. Waldrop, A. Kumar, E. G. Hohenstein,
    B. P. Pritchard, B. R. Brooks, H. F. Schaefer III, A. Yu. Sokolov,
    K. Patkowski, A. E. DePrince III, U. Bozkaya, R. A. King,
    F. A. Evangelista, J. M. Turney, T. D. Crawford, C. D. Sherrill,
    J. Chem. Phys. 152(18) 184108 (2020). https://doi.org/10.1063/5.0006002

                            Additional Code Authors
    E. T. Seidl, C. L. Janssen, E. F. Valeev, M. L. Leininger,
    J. F. Gonthier, R. M. Richard, H. R. McAlexander, M. Saitow, X. Wang,
    P. Verma, M. H. Lechner, A. Jiang, S. Behnle, A. G. Heide,
    M. F. Herbst, and D. L. Poole

             Previous Authors, Complete List of Code Contributors,
                       and Citations for Specific Modules
    https://github.com/psi4/psi4/blob/master/codemeta.json
    https://github.com/psi4/psi4/graphs/contributors
    http://psicode.org/psi4manual/master/introduction.html#citing-psifour

    -----------------------------------------------------------------------


    Psi4 started on: Wednesday, 15 May 2024 05:56PM

    Process ID: 91481
    Host:       Barrys-MacBook-Pro.local
    PSIDATADIR: /Users/blink/psi4conda/share/psi4
    Memory:     3.7 GiB
    Threads:    4
      Threads set to 4 by Python driver.
Molecule: Setting geometry variable dihedral to 0.000000

Scratch directory: /tmp/
gradient() will perform analytic gradient computation.
   => Libint2 <=

    Primary   basis highest AM E, G, H:  5, 4, 3
    Auxiliary basis highest AM E, G, H:  6, 5, 4
    Onebody   basis highest AM E, G, H:  6, 5, 4
    Solid Harmonics ordering:            Gaussian

*** tstart() called on Barrys-MacBook-Pro.local
*** at Wed May 15 21:55:46 2024

   => Loading Basis Set <=

    Name: 6-31+G(D)
    Role: ORBITAL
    Keyword: BASIS
    atoms 1-4  entry C          line   119 file /Users/blink/psi4conda/share/psi4/basis/6-31pg_d_.gbs 
    atoms 5-10 entry H          line    46 file /Users/blink/psi4conda/share/psi4/basis/6-31pg_d_.gbs 


         ---------------------------------------------------------
                                   SCF
               by Justin Turney, Rob Parrish, Andy Simmonett
                          and Daniel G. A. Smith
                              RHF Reference
                        4 Threads,   3814 MiB Core
         ---------------------------------------------------------

  ==> Geometry <==

    Molecular point group: c2
    Full point group: C2v

    Geometry (in Angstrom), charge = 0, multiplicity = 1:

       Center              X                  Y                   Z               Mass       
    ------------   -----------------  -----------------  -----------------  -----------------
         C            0.000000000000     1.479852861178    -0.524841339209    12.000000000000
         C            0.000000000000     0.744686067766     0.563459599083    12.000000000000
         C            0.000000000000    -0.744686067766     0.563459599083    12.000000000000
         C            0.000000000000    -1.479852861178    -0.524841339209    12.000000000000
         H           -0.000000000001     2.560428430844    -0.486998297918     1.007825032230
         H           -0.000000000000     1.040677784815    -1.513507608508     1.007825032230
         H           -0.000000000000     1.215158462221     1.540684902126     1.007825032230
         H            0.000000000000    -1.215158462221     1.540684902126     1.007825032230
         H            0.000000000001    -2.560428430844    -0.486998297918     1.007825032230
         H            0.000000000000    -1.040677784815    -1.513507608508     1.007825032230

  Running in c2 symmetry.

  Rotational constants: A =      0.69918  B =      0.20011  C =      0.15558 [cm^-1]
  Rotational constants: A =  20960.89979  B =   5999.13292  C =   4664.20888 [MHz]
  Nuclear repulsion =  105.902225610822981

  Charge       = 0
  Multiplicity = 1
  Electrons    = 30
  Nalpha       = 15
  Nbeta        = 15

  ==> Algorithm <==

  SCF Algorithm Type is DF.
  DIIS enabled.
  MOM disabled.
  Fractional occupation disabled.
  Guess Type is SAD.
  Energy threshold   = 1.00e-08
  Density threshold  = 1.00e-08
  Integral threshold = 1.00e-12

  ==> Primary Basis <==

  Basis Set: 6-31+G(D)
    Blend: 6-31+G(D)
    Number of shells: 44
    Number of basis functions: 88
    Number of Cartesian functions: 88
    Spherical Harmonics?: false
    Max angular momentum: 2

   => Loading Basis Set <=

    Name: (6-31+G(D) AUX)
    Role: JKFIT
    Keyword: DF_BASIS_SCF
    atoms 1-4  entry C          line   194 file /Users/blink/psi4conda/share/psi4/basis/heavy-aug-cc-pvdz-jkfit.gbs 
    atoms 5-10 entry H          line   116 file /Users/blink/psi4conda/share/psi4/basis/heavy-aug-cc-pvdz-jkfit.gbs 

  ==> Integral Setup <==

  DFHelper Memory: AOs need 0.036 GiB; user supplied 2.794 GiB. 
  Using in-core AOs.

  ==> MemDFJK: Density-Fitted J/K Matrices <==

    J tasked:                   Yes
    K tasked:                   Yes
    wK tasked:                   No
    OpenMP threads:               4
    Memory [MiB]:              2861
    Algorithm:                 Core
    Schwarz Cutoff:           1E-12
    Mask sparsity (%):       0.1550
    Fitting Condition:        1E-10

   => Auxiliary Basis Set <=

  Basis Set: (6-31+G(D) AUX)
    Blend: HEAVY-AUG-CC-PVDZ-JKFIT
    Number of shells: 166
    Number of basis functions: 554
    Number of Cartesian functions: 554
    Spherical Harmonics?: false
    Max angular momentum: 3

  Minimum eigenvalue in the overlap matrix is 9.5224518699E-05.
  Reciprocal condition number of the overlap matrix is 1.0587128657E-05.
    Using symmetric orthogonalization.

  ==> Pre-Iterations <==

  SCF Guess: Superposition of Atomic Densities via on-the-fly atomic UHF (no occupation information).

   -------------------------
    Irrep   Nso     Nmo    
   -------------------------
     A         44      44 
     B         44      44 
   -------------------------
    Total      88      88
   -------------------------

  ==> Iterations <==

                           Total Energy        Delta E     RMS |[F,P]|

   @DF-RHF iter SAD:  -153.98907751148133   -1.53989e+02   0.00000e+00 
   @DF-RHF iter   1:  -154.78904656634055   -7.99969e-01   7.29773e-03 DIIS/ADIIS
   @DF-RHF iter   2:  -154.89830032215727   -1.09254e-01   3.02626e-03 DIIS/ADIIS
   @DF-RHF iter   3:  -154.91690265673432   -1.86023e-02   5.28086e-04 DIIS/ADIIS
   @DF-RHF iter   4:  -154.91775227121437   -8.49614e-04   2.12249e-04 DIIS/ADIIS
   @DF-RHF iter   5:  -154.91784735957134   -9.50884e-05   2.82249e-05 DIIS
   @DF-RHF iter   6:  -154.91785103434626   -3.67477e-06   5.28882e-06 DIIS
   @DF-RHF iter   7:  -154.91785118369052   -1.49344e-07   1.41827e-06 DIIS
   @DF-RHF iter   8:  -154.91785119720763   -1.35171e-08   3.51414e-07 DIIS
   @DF-RHF iter   9:  -154.91785119792260   -7.14977e-10   8.10418e-08 DIIS
   @DF-RHF iter  10:  -154.91785119795304   -3.04397e-11   1.76152e-08 DIIS
   @DF-RHF iter  11:  -154.91785119795458   -1.53477e-12   2.75802e-09 DIIS
  Energy and wave function converged.


  ==> Post-Iterations <==

    Orbital Energies [Eh]
    ---------------------

    Doubly Occupied:                                                      

       1A    -11.241522     1B    -11.240822     2B    -11.229305  
       2A    -11.229294     3A     -1.096968     3B     -1.001353  
       4A     -0.842841     4B     -0.729335     5A     -0.675856  
       6A     -0.619357     5B     -0.586417     6B     -0.520809  
       7A     -0.495344     7B     -0.443929     8A     -0.328278  

    Virtual:                                                              

       8B      0.078835     9A      0.084118    10A      0.090063  
       9B      0.091588    10B      0.105212    11A      0.135119  
      11B      0.140265    12A      0.150127    12B      0.166002  
      13A      0.172410    14A      0.176043    15A      0.185913  
      13B      0.206636    14B      0.221636    16A      0.235756  
      15B      0.241011    16B      0.286715    17A      0.310348  
      18A      0.330049    19A      0.340544    17B      0.392805  
      18B      0.419453    19B      0.448360    20A      0.465572  
      21A      0.503147    20B      0.601624    21B      0.639246  
      22A      0.740281    23A      0.839432    22B      0.885923  
      23B      0.934393    24A      0.941234    24B      0.979278  
      25A      1.009752    26A      1.015096    27A      1.047319  
      25B      1.095549    28A      1.168304    26B      1.205266  
      27B      1.234199    29A      1.242600    28B      1.289257  
      30A      1.301391    29B      1.302572    30B      1.351307  
      31A      1.384868    31B      1.483213    32A      1.505438  
      32B      1.611568    33B      1.720513    34B      1.748063  
      33A      1.799685    34A      1.931760    35B      2.049254  
      35A      2.075354    36A      2.232663    37A      2.331304  
      36B      2.356300    37B      2.496867    38A      2.499998  
      39A      2.590141    38B      2.618390    39B      2.643045  
      40A      2.885278    40B      2.921343    41A      2.935324  
      42A      3.035671    41B      3.259881    42B      3.455585  
      43A      4.621520    44A      4.646912    43B      4.677760  
      44B      4.920010  

    Final Occupation by Irrep:
              A     B 
    DOCC [     8,    7 ]
    NA   [     8,    7 ]
    NB   [     8,    7 ]

  @DF-RHF Final Energy:  -154.91785119795458

   => Energetics <=

    Nuclear Repulsion Energy =            105.9022256108229811
    One-Electron Energy =                -417.0772968598769239
    Two-Electron Energy =                 156.2572200510993525
    Total Energy =                       -154.9178511979545760

Computation Completed


Properties will be evaluated at   0.000000,   0.000000,   0.000000 [a0]

Properties computed using the SCF density matrix


 Multipole Moments:

 ------------------------------------------------------------------------------------
     Multipole            Electronic (a.u.)      Nuclear  (a.u.)        Total (a.u.)
 ------------------------------------------------------------------------------------

 L = 1.  Multiply by 2.5417464519 to convert [e a0] to [Debye]
 Dipole X            :          0.0000000            0.0000000            0.0000000
 Dipole Y            :          0.0000000           -0.0000000           -0.0000000
 Dipole Z            :          0.8786384           -0.8621363            0.0165021
 Magnitude           :                                                    0.0165021

 ------------------------------------------------------------------------------------

*** tstop() called on Barrys-MacBook-Pro.local at Wed May 15 21:55:47 2024
Module time:
	user time   =       2.49 seconds =       0.04 minutes
	system time =       0.12 seconds =       0.00 minutes
	total time  =          1 seconds =       0.02 minutes
Total time:
	user time   =    1003.70 seconds =      16.73 minutes
	system time =      30.71 seconds =       0.51 minutes
	total time  =      14331 seconds =     238.85 minutes

*** tstart() called on Barrys-MacBook-Pro.local
*** at Wed May 15 21:55:47 2024


         ------------------------------------------------------------
                                   SCF GRAD                          
                          Rob Parrish, Justin Turney,                
                       Andy Simmonett, and Alex Sokolov              
         ------------------------------------------------------------

  ==> Geometry <==

    Molecular point group: c2
    Full point group: C2v

    Geometry (in Angstrom), charge = 0, multiplicity = 1:

       Center              X                  Y                   Z               Mass       
    ------------   -----------------  -----------------  -----------------  -----------------
         C            0.000000000000     1.479852861178    -0.524841339209    12.000000000000
         C            0.000000000000     0.744686067766     0.563459599083    12.000000000000
         C            0.000000000000    -0.744686067766     0.563459599083    12.000000000000
         C            0.000000000000    -1.479852861178    -0.524841339209    12.000000000000
         H           -0.000000000001     2.560428430844    -0.486998297918     1.007825032230
         H           -0.000000000000     1.040677784815    -1.513507608508     1.007825032230
         H           -0.000000000000     1.215158462221     1.540684902126     1.007825032230
         H            0.000000000000    -1.215158462221     1.540684902126     1.007825032230
         H            0.000000000001    -2.560428430844    -0.486998297918     1.007825032230
         H            0.000000000000    -1.040677784815    -1.513507608508     1.007825032230

  Nuclear repulsion =  105.902225610823024

  ==> Basis Set <==

  Basis Set: 6-31+G(D)
    Blend: 6-31+G(D)
    Number of shells: 44
    Number of basis functions: 88
    Number of Cartesian functions: 88
    Spherical Harmonics?: false
    Max angular momentum: 2

  ==> DFJKGrad: Density-Fitted SCF Gradients <==

    Gradient:                    1
    J tasked:                  Yes
    K tasked:                  Yes
    wK tasked:                  No
    OpenMP threads:              4
    Integrals threads:           4
    Memory [MiB]:             2861
    Schwarz Cutoff:          1E-12
    Fitting Condition:       1E-10

   => Auxiliary Basis Set <=

  Basis Set: (6-31+G(D) AUX)
    Blend: HEAVY-AUG-CC-PVDZ-JKFIT
    Number of shells: 166
    Number of basis functions: 554
    Number of Cartesian functions: 554
    Spherical Harmonics?: false
    Max angular momentum: 3


  -Total Gradient:
     Atom            X                  Y                   Z
    ------   -----------------  -----------------  -----------------
       1        0.000000000000    -0.016273353150     0.014626276134
       2        0.000000000000     0.012806593585    -0.014812678232
       3       -0.000000000000    -0.012806593585    -0.014812678232
       4       -0.000000000000     0.016273353150     0.014626276134
       5       -0.000000000000     0.004571207879    -0.000845972576
       6       -0.000000000000    -0.004065745813    -0.004602028351
       7       -0.000000000000     0.001093001147     0.005634403025
       8        0.000000000000    -0.001093001147     0.005634403025
       9        0.000000000000    -0.004571207879    -0.000845972576
      10        0.000000000000     0.004065745813    -0.004602028351


*** tstop() called on Barrys-MacBook-Pro.local at Wed May 15 21:55:47 2024
Module time:
	user time   =       1.12 seconds =       0.02 minutes
	system time =       0.08 seconds =       0.00 minutes
	total time  =          0 seconds =       0.00 minutes
Total time:
	user time   =    1004.83 seconds =      16.75 minutes
	system time =      30.79 seconds =       0.51 minutes
	total time  =      14331 seconds =     238.85 minutes

    			-----------------------------------------

    			 OPTKING 3.0: for geometry optimizations 

    			     By R.A. King, Bethel University     

    			        with contributions from          

    			    A.V. Copan, J. Cayton, A. Heide      

    			-----------------------------------------

    
	                            ===> Fragment 1 <== 

	 Z (Atomic Numbers)          Masses                          Geom                  
	       6.000000            12.000000          0.00000000  2.79651661 -0.99180639   
	       6.000000            12.000000          0.00000000  1.40725272  1.06478433   
	       6.000000            12.000000          0.00000000 -1.40725272  1.06478433   
	       6.000000            12.000000          0.00000000 -2.79651661 -0.99180639   
	       1.000000             1.007825         -0.00000000  4.83850850 -0.92029341   
	       1.000000             1.007825         -0.00000000  1.96659600 -2.86011487   
	       1.000000             1.007825         -0.00000000  2.29631669  2.91147251   
	       1.000000             1.007825          0.00000000 -2.29631669  2.91147251   
	       1.000000             1.007825          0.00000000 -4.83850850 -0.92029341   
	       1.000000             1.007825          0.00000000 -1.96659600 -2.86011487   

	 - Coordinate -           - BOHR/RAD -       - ANG/DEG -
	 R(1,2)           =         2.481858           1.313343
	 R(1,5)           =         2.043244           1.081238
	 R(1,6)           =         2.044345           1.081821
	 R(2,3)           =         2.814505           1.489372
	 R(2,7)           =         2.049559           1.084580
	 R(3,4)           =         2.481858           1.313343
	 R(3,8)           =         2.049559           1.084580
	 R(4,9)           =         2.043244           1.081238
	 R(4,10)          =         2.044345           1.081821
	 B(1,2,3)         =         2.164902         124.039732
	 B(1,2,7)         =         2.098800         120.252385
	 B(2,1,5)         =         2.129895         122.033985
	 B(2,1,6)         =         2.129459         122.009015
	 B(2,3,4)         =         2.164902         124.039732
	 B(2,3,8)         =         2.019484         115.707884
	 B(3,2,7)         =         2.019484         115.707884
	 B(3,4,9)         =         2.129895         122.033985
	 B(3,4,10)        =         2.129459         122.009015
	 B(4,3,8)         =         2.098800         120.252385
	 B(5,1,6)         =         2.023831         115.957000
	 B(9,4,10)        =         2.023831         115.957000
	*D(1,2,3,4)       =         0.000000           0.000000
	 D(1,2,3,8)       =         3.141593         180.000000
	 D(2,3,4,9)       =         3.141593         180.000000
	 D(2,3,4,10)      =         0.000000           0.000000
	 D(3,2,1,5)       =         3.141593         180.000000
	 D(3,2,1,6)       =         0.000000           0.000000
	 D(4,3,2,7)       =         3.141593         180.000000
	 D(5,1,2,7)       =        -0.000000          -0.000000
	 D(6,1,2,7)       =         3.141593         180.000000
	 D(7,2,3,8)       =        -0.000000          -0.000000
	 D(8,3,4,9)       =        -0.000000          -0.000000
	 D(8,3,4,10)      =         3.141593         180.000000


	        --- Internal Coordinate Step in ANG or DEG, aJ/ANG or AJ/DEG ---
	-------------------------------------------------------------------------------
	           Coordinate      Previous         Force          Change          New 
	           ----------      --------        ------          ------        ------
	               R(1,2)       1.31334        0.13538        0.01356       1.32690
	               R(1,5)       1.08124       -0.03739       -0.00661       1.07463
	               R(1,6)       1.08182       -0.04825       -0.00854       1.07328
	               R(2,3)       1.48937        0.01539        0.00291       1.49228
	               R(2,7)       1.08458       -0.04573       -0.00817       1.07641
	               R(3,4)       1.31334        0.13538        0.01356       1.32690
	               R(3,8)       1.08458       -0.04573       -0.00817       1.07641
	               R(4,9)       1.08124       -0.03739       -0.00661       1.07463
	              R(4,10)       1.08182       -0.04825       -0.00854       1.07328
	             B(1,2,3)     124.03973        0.00122        4.07635     128.11609
	             B(1,2,7)     120.25238       -0.00072       -2.55744     117.69494
	             B(2,1,5)     122.03398       -0.00020       -0.91269     121.12130
	             B(2,1,6)     122.00902        0.00024        1.11204     123.12105
	             B(2,3,4)     124.03973        0.00122        4.07635     128.11609
	             B(2,3,8)     115.70788       -0.00050       -1.51891     114.18897
	             B(3,2,7)     115.70788       -0.00050       -1.51891     114.18897
	             B(3,4,9)     122.03398       -0.00020       -0.91269     121.12130
	            B(3,4,10)     122.00902        0.00024        1.11204     123.12105
	             B(4,3,8)     120.25238       -0.00072       -2.55744     117.69494
	             B(5,1,6)     115.95700       -0.00004       -0.19935     115.75765
	            B(9,4,10)     115.95700       -0.00004       -0.19935     115.75765
	          *D(1,2,3,4)       0.00000        0.00000       -0.00000      -0.00000
	           D(1,2,3,8)     180.00000        0.00000        0.00000     180.00000
	           D(2,3,4,9)     180.00000        0.00000        0.00000     180.00000
	          D(2,3,4,10)       0.00000       -0.00000       -0.00000      -0.00000
	           D(3,2,1,5)     180.00000        0.00000        0.00000     180.00000
	           D(3,2,1,6)       0.00000       -0.00000       -0.00000      -0.00000
	           D(4,3,2,7)     180.00000        0.00000        0.00000     180.00000
	           D(5,1,2,7)      -0.00000        0.00000        0.00000       0.00000
	           D(6,1,2,7)     180.00000       -0.00000        0.00000     180.00000
	           D(7,2,3,8)      -0.00000        0.00000        0.00000       0.00000
	           D(8,3,4,9)      -0.00000        0.00000        0.00000       0.00000
	          D(8,3,4,10)     180.00000       -0.00000        0.00000     180.00000
	-------------------------------------------------------------------------------

	                                 ==> Convergence Check <==                                  
    
	Measures of convergence in internal coordinates in au.
    
	Criteria marked as inactive (o), active & met (*), and active & unmet ( ).

	----------------------------------------------------------------------------------------------
	   Step    Total Energy     Delta E     Max Force     RMS Force      Max Disp      RMS Disp   
	----------------------------------------------------------------------------------------------
	  Convergence Criteria     1.00e-06 *    3.00e-04 *             o    1.20e-03 *             o
	----------------------------------------------------------------------------------------------
	     1    -154.91785120   -1.55e+02      1.64e-02      6.80e-03 o    7.11e-02      2.43e-02 o  ~
	----------------------------------------------------------------------------------------------

Next Geometry in Ang 
	Fragment 1 (Ang)

	    C  -0.0000000000   1.5651794891  -0.5211283307
	    C  -0.0000000000   0.7461391527   0.5228287648
	    C   0.0000000000  -0.7461391527   0.5228287648
	    C   0.0000000000  -1.5651794891  -0.5211283307
	    H   0.0000000000   2.6318110760  -0.3902609389
	    H   0.0000000000   1.2199575619  -1.5373699071
	    H  -0.0000000000   1.1871948227   1.5047276675
	    H   0.0000000000  -1.1871948227   1.5047276675
	    H  -0.0000000000  -2.6318110760  -0.3902609389
	    H  -0.0000000000  -1.2199575619  -1.5373699071


    Structure for next step:
    Molecular point group: c2
    Full point group: C2v

    Geometry (in Angstrom), charge = 0, multiplicity = 1:

    C       
    C             1         CC1
    C             2         CC2      1       A_321
    C             3         CC1      2       A_321      1    dihedral
    H             1      CH_5_9      2      CH_512      3          D3
    H             1     CH_6_10      5      CH_615      2          D2
    H             2      CH_7_8      1      CH_721      3          D1
    H             3      CH_7_8      4      CH_721      2          D1
    H             4      CH_5_9      3      CH_512      2          D3
    H             4     CH_6_10      9      CH_615      3          D2

    A_321     =  128.1160865175
    CC1       =    1.3269037228
    CC2       =    1.4922783055
    CH_512    =  121.1212990368
    CH_5_9    =    1.0746298044
    CH_615    =  115.7576474133
    CH_6_10   =    1.0732777463
    CH_721    =  117.6949439628
    CH_7_8    =    1.0764086395
    D1        =  179.9999999999
    D2        = -179.9999999997
    D3        = -179.9999999998
    dihedral  =   -0.0000000000


Scratch directory: /tmp/
gradient() will perform analytic gradient computation.
   => Libint2 <=

    Primary   basis highest AM E, G, H:  5, 4, 3
    Auxiliary basis highest AM E, G, H:  6, 5, 4
    Onebody   basis highest AM E, G, H:  6, 5, 4
    Solid Harmonics ordering:            Gaussian

*** tstart() called on Barrys-MacBook-Pro.local
*** at Wed May 15 21:55:48 2024

   => Loading Basis Set <=

    Name: 6-31+G(D)
    Role: ORBITAL
    Keyword: BASIS
    atoms 1-4  entry C          line   119 file /Users/blink/psi4conda/share/psi4/basis/6-31pg_d_.gbs 
    atoms 5-10 entry H          line    46 file /Users/blink/psi4conda/share/psi4/basis/6-31pg_d_.gbs 


         ---------------------------------------------------------
                                   SCF
               by Justin Turney, Rob Parrish, Andy Simmonett
                          and Daniel G. A. Smith
                              RHF Reference
                        4 Threads,   3814 MiB Core
         ---------------------------------------------------------

  ==> Geometry <==

    Molecular point group: c2
    Full point group: C2v

    Geometry (in Angstrom), charge = 0, multiplicity = 1:

       Center              X                  Y                   Z               Mass       
    ------------   -----------------  -----------------  -----------------  -----------------
         C            0.000000000000     1.565179489073    -0.506111490721    12.000000000000
         C            0.000000000000     0.746139152747     0.537845604716    12.000000000000
         C            0.000000000000    -0.746139152747     0.537845604716    12.000000000000
         C           -0.000000000000    -1.565179489073    -0.506111490721    12.000000000000
         H            0.000000000004     2.631811076028    -0.375244098986     1.007825032230
         H            0.000000000002     1.219957561942    -1.522353067144     1.007825032230
         H            0.000000000001     1.187194822651     1.519744507422     1.007825032230
         H           -0.000000000001    -1.187194822651     1.519744507422     1.007825032230
         H           -0.000000000004    -2.631811076028    -0.375244098986     1.007825032230
         H           -0.000000000002    -1.219957561942    -1.522353067144     1.007825032230

  Running in c2 symmetry.

  Rotational constants: A =      0.74260  B =      0.18332  C =      0.14702 [cm^-1]
  Rotational constants: A =  22262.56695  B =   5495.74020  C =   4407.66375 [MHz]
  Nuclear repulsion =  104.613875900143242

  Charge       = 0
  Multiplicity = 1
  Electrons    = 30
  Nalpha       = 15
  Nbeta        = 15

  ==> Algorithm <==

  SCF Algorithm Type is DF.
  DIIS enabled.
  MOM disabled.
  Fractional occupation disabled.
  Guess Type is READ.
  Energy threshold   = 1.00e-08
  Density threshold  = 1.00e-08
  Integral threshold = 1.00e-12

  ==> Primary Basis <==

  Basis Set: 6-31+G(D)
    Blend: 6-31+G(D)
    Number of shells: 44
    Number of basis functions: 88
    Number of Cartesian functions: 88
    Spherical Harmonics?: false
    Max angular momentum: 2

   => Loading Basis Set <=

    Name: (6-31+G(D) AUX)
    Role: JKFIT
    Keyword: DF_BASIS_SCF
    atoms 1-4  entry C          line   194 file /Users/blink/psi4conda/share/psi4/basis/heavy-aug-cc-pvdz-jkfit.gbs 
    atoms 5-10 entry H          line   116 file /Users/blink/psi4conda/share/psi4/basis/heavy-aug-cc-pvdz-jkfit.gbs 

   => Loading Basis Set <=

    Name: 6-31+G(D)
    Role: ORBITAL
    Keyword: BASIS
    atoms 1-4  entry C          line   119 file /Users/blink/psi4conda/share/psi4/basis/6-31pg_d_.gbs 
    atoms 5-10 entry H          line    46 file /Users/blink/psi4conda/share/psi4/basis/6-31pg_d_.gbs 

  Reading orbitals from file /tmp/Butadiene_PES_2.default.91481.180.npy, no projection.

  ==> Integral Setup <==

  DFHelper Memory: AOs need 0.036 GiB; user supplied 2.794 GiB. 
  Using in-core AOs.

  ==> MemDFJK: Density-Fitted J/K Matrices <==

    J tasked:                   Yes
    K tasked:                   Yes
    wK tasked:                   No
    OpenMP threads:               4
    Memory [MiB]:              2861
    Algorithm:                 Core
    Schwarz Cutoff:           1E-12
    Mask sparsity (%):       0.1550
    Fitting Condition:        1E-10

   => Auxiliary Basis Set <=

  Basis Set: (6-31+G(D) AUX)
    Blend: HEAVY-AUG-CC-PVDZ-JKFIT
    Number of shells: 166
    Number of basis functions: 554
    Number of Cartesian functions: 554
    Spherical Harmonics?: false
    Max angular momentum: 3

  Minimum eigenvalue in the overlap matrix is 8.0734168003E-05.
  Reciprocal condition number of the overlap matrix is 9.0035314819E-06.
    Using symmetric orthogonalization.

  ==> Pre-Iterations <==

  SCF Guess: Orbitals guess was supplied from a previous computation.

   -------------------------------------------------------
    Irrep   Nso     Nmo     Nalpha   Nbeta   Ndocc  Nsocc
   -------------------------------------------------------
     A         44      44       8       8       8       0
     B         44      44       7       7       7       0
   -------------------------------------------------------
    Total      88      88      15      15      15       0
   -------------------------------------------------------

  ==> Iterations <==

                           Total Energy        Delta E     RMS |[F,P]|

   @DF-RHF iter   0:  -154.91926557745228   -1.54919e+02   2.77418e-03 
   @DF-RHF iter   1:  -154.91894957625922    3.16001e-04   3.94410e-04 DIIS/ADIIS
   @DF-RHF iter   2:  -154.91943685624162   -4.87280e-04   1.26515e-04 DIIS/ADIIS
   @DF-RHF iter   3:  -154.91949102364131   -5.41674e-05   5.51068e-05 DIIS
   @DF-RHF iter   4:  -154.91949762425023   -6.60061e-06   7.00132e-06 DIIS
   @DF-RHF iter   5:  -154.91949783264329   -2.08393e-07   1.40751e-06 DIIS
   @DF-RHF iter   6:  -154.91949784135309   -8.70980e-09   3.68282e-07 DIIS
   @DF-RHF iter   7:  -154.91949784183950   -4.86409e-10   8.40653e-08 DIIS
   @DF-RHF iter   8:  -154.91949784187219   -3.26850e-11   1.40997e-08 DIIS
   @DF-RHF iter   9:  -154.91949784187329   -1.10845e-12   2.91751e-09 DIIS
  Energy and wave function converged.


  ==> Post-Iterations <==

    Orbital Energies [Eh]
    ---------------------

    Doubly Occupied:                                                      

       1A    -11.244254     1B    -11.243565     2B    -11.231804  
       2A    -11.231795     3A     -1.089811     3B     -1.003423  
       4A     -0.847038     4B     -0.734754     5A     -0.672038  
       6A     -0.617541     5B     -0.591758     6B     -0.522600  
       7A     -0.497350     7B     -0.439318     8A     -0.327480  

    Virtual:                                                              

       8B      0.077365     9A      0.083995     9B      0.091319  
      10A      0.091730    10B      0.106017    11A      0.133311  
      11B      0.141133    12A      0.147910    12B      0.163439  
      13A      0.172522    14A      0.179138    15A      0.190109  
      13B      0.204410    14B      0.225011    16A      0.235033  
      15B      0.238882    16B      0.286159    17A      0.308311  
      18A      0.324281    19A      0.356120    17B      0.389994  
      18B      0.409121    19B      0.451145    20A      0.466135  
      21A      0.502712    20B      0.593560    21B      0.628867  
      22A      0.743754    23A      0.828117    22B      0.889664  
      23B      0.932842    24A      0.939987    24B      0.980605  
      25A      1.001201    26A      1.011926    27A      1.046798  
      25B      1.082278    28A      1.171950    26B      1.208075  
      27B      1.234798    29A      1.248611    28B      1.272639  
      30A      1.289731    29B      1.303674    30B      1.354833  
      31A      1.386379    31B      1.472068    32A      1.504533  
      32B      1.604429    33B      1.726701    34B      1.751295  
      33A      1.797043    34A      1.931120    35B      2.044934  
      35A      2.078789    36A      2.221729    37A      2.329321  
      36B      2.349925    38A      2.465490    37B      2.495378  
      39A      2.584038    38B      2.609356    39B      2.620376  
      40A      2.890363    40B      2.897051    41A      2.936212  
      42A      3.003565    41B      3.240372    42B      3.471434  
      43A      4.604942    44A      4.651333    43B      4.675795  
      44B      4.935144  

    Final Occupation by Irrep:
              A     B 
    DOCC [     8,    7 ]
    NA   [     8,    7 ]
    NB   [     8,    7 ]

  @DF-RHF Final Energy:  -154.91949784187329

   => Energetics <=

    Nuclear Repulsion Energy =            104.6138759001432419
    One-Electron Energy =                -414.4776887654036273
    Two-Electron Energy =                 154.9443150233871052
    Total Energy =                       -154.9194978418732944

Computation Completed


Properties will be evaluated at   0.000000,   0.000000,   0.000000 [a0]

Properties computed using the SCF density matrix


 Multipole Moments:

 ------------------------------------------------------------------------------------
     Multipole            Electronic (a.u.)      Nuclear  (a.u.)        Total (a.u.)
 ------------------------------------------------------------------------------------

 L = 1.  Multiply by 2.5417464519 to convert [e a0] to [Debye]
 Dipole X            :          0.0000000           -0.0000000           -0.0000000
 Dipole Y            :          0.0000000            0.0000000            0.0000000
 Dipole Z            :          0.7147877           -0.7084507            0.0063371
 Magnitude           :                                                    0.0063371

 ------------------------------------------------------------------------------------

*** tstop() called on Barrys-MacBook-Pro.local at Wed May 15 21:55:48 2024
Module time:
	user time   =       2.07 seconds =       0.03 minutes
	system time =       0.10 seconds =       0.00 minutes
	total time  =          0 seconds =       0.00 minutes
Total time:
	user time   =    1007.57 seconds =      16.79 minutes
	system time =      30.90 seconds =       0.52 minutes
	total time  =      14332 seconds =     238.87 minutes

*** tstart() called on Barrys-MacBook-Pro.local
*** at Wed May 15 21:55:48 2024


         ------------------------------------------------------------
                                   SCF GRAD                          
                          Rob Parrish, Justin Turney,                
                       Andy Simmonett, and Alex Sokolov              
         ------------------------------------------------------------

  ==> Geometry <==

    Molecular point group: c2
    Full point group: C2v

    Geometry (in Angstrom), charge = 0, multiplicity = 1:

       Center              X                  Y                   Z               Mass       
    ------------   -----------------  -----------------  -----------------  -----------------
         C            0.000000000000     1.565179489073    -0.506111490721    12.000000000000
         C            0.000000000000     0.746139152747     0.537845604716    12.000000000000
         C            0.000000000000    -0.746139152747     0.537845604716    12.000000000000
         C           -0.000000000000    -1.565179489073    -0.506111490721    12.000000000000
         H            0.000000000004     2.631811076028    -0.375244098986     1.007825032230
         H            0.000000000002     1.219957561942    -1.522353067144     1.007825032230
         H            0.000000000001     1.187194822651     1.519744507422     1.007825032230
         H           -0.000000000001    -1.187194822651     1.519744507422     1.007825032230
         H           -0.000000000004    -2.631811076028    -0.375244098986     1.007825032230
         H           -0.000000000002    -1.219957561942    -1.522353067144     1.007825032230

  Nuclear repulsion =  104.613875900143242

  ==> Basis Set <==

  Basis Set: 6-31+G(D)
    Blend: 6-31+G(D)
    Number of shells: 44
    Number of basis functions: 88
    Number of Cartesian functions: 88
    Spherical Harmonics?: false
    Max angular momentum: 2

  ==> DFJKGrad: Density-Fitted SCF Gradients <==

    Gradient:                    1
    J tasked:                  Yes
    K tasked:                  Yes
    wK tasked:                  No
    OpenMP threads:              4
    Integrals threads:           4
    Memory [MiB]:             2861
    Schwarz Cutoff:          1E-12
    Fitting Condition:       1E-10

   => Auxiliary Basis Set <=

  Basis Set: (6-31+G(D) AUX)
    Blend: HEAVY-AUG-CC-PVDZ-JKFIT
    Number of shells: 166
    Number of basis functions: 554
    Number of Cartesian functions: 554
    Spherical Harmonics?: false
    Max angular momentum: 3


  -Total Gradient:
     Atom            X                  Y                   Z
    ------   -----------------  -----------------  -----------------
       1       -0.000000000000     0.002014537353    -0.000936238256
       2       -0.000000000000     0.005737159540     0.001519812757
       3        0.000000000000    -0.005737159540     0.001519812757
       4        0.000000000000    -0.002014537353    -0.000936238256
       5        0.000000000000    -0.000107007674    -0.001306742944
       6        0.000000000000     0.001923176134     0.001682839411
       7        0.000000000000    -0.000159877702    -0.000959670968
       8       -0.000000000000     0.000159877702    -0.000959670968
       9       -0.000000000000     0.000107007674    -0.001306742944
      10       -0.000000000000    -0.001923176134     0.001682839411


*** tstop() called on Barrys-MacBook-Pro.local at Wed May 15 21:55:48 2024
Module time:
	user time   =       1.15 seconds =       0.02 minutes
	system time =       0.08 seconds =       0.00 minutes
	total time  =          0 seconds =       0.00 minutes
Total time:
	user time   =    1008.73 seconds =      16.81 minutes
	system time =      30.98 seconds =       0.52 minutes
	total time  =      14332 seconds =     238.87 minutes

    			-----------------------------------------

    			 OPTKING 3.0: for geometry optimizations 

    			     By R.A. King, Bethel University     

    			        with contributions from          

    			    A.V. Copan, J. Cayton, A. Heide      

    			-----------------------------------------

    
	                            ===> Fragment 1 <== 

	 Z (Atomic Numbers)          Masses                          Geom                  
	       6.000000            12.000000          0.00000000  2.95776057 -0.95641211   
	       6.000000            12.000000          0.00000000  1.40999865  1.01638089   
	       6.000000            12.000000          0.00000000 -1.40999865  1.01638089   
	       6.000000            12.000000         -0.00000000 -2.95776057 -0.95641211   
	       1.000000             1.007825          0.00000000  4.97340215 -0.70910858   
	       1.000000             1.007825          0.00000000  2.30538568 -2.87683036   
	       1.000000             1.007825          0.00000000  2.24347307  2.87190090   
	       1.000000             1.007825         -0.00000000 -2.24347307  2.87190090   
	       1.000000             1.007825         -0.00000000 -4.97340215 -0.70910858   
	       1.000000             1.007825         -0.00000000 -2.30538568 -2.87683036   

	 - Coordinate -           - BOHR/RAD -       - ANG/DEG -
	 R(1,2)           =         2.507485           1.326904
	 R(1,5)           =         2.030756           1.074630
	 R(1,6)           =         2.028201           1.073278
	 R(2,3)           =         2.819997           1.492278
	 R(2,7)           =         2.034118           1.076409
	 R(3,4)           =         2.507485           1.326904
	 R(3,8)           =         2.034118           1.076409
	 R(4,9)           =         2.030756           1.074630
	 R(4,10)          =         2.028201           1.073278
	 B(1,2,3)         =         2.236048         128.116087
	 B(1,2,7)         =         2.054164         117.694944
	 B(2,1,5)         =         2.113965         121.121299
	 B(2,1,6)         =         2.148868         123.121054
	 B(2,3,4)         =         2.236048         128.116087
	 B(2,3,8)         =         1.992973         114.188970
	 B(3,2,7)         =         1.992973         114.188970
	 B(3,4,9)         =         2.113965         121.121299
	 B(3,4,10)        =         2.148868         123.121054
	 B(4,3,8)         =         2.054164         117.694944
	 B(5,1,6)         =         2.020352         115.757647
	 B(9,4,10)        =         2.020352         115.757647
	*D(1,2,3,4)       =        -0.000000          -0.000000
	 D(1,2,3,8)       =         3.141593         180.000000
	 D(2,3,4,9)       =         3.141593         180.000000
	 D(2,3,4,10)      =        -0.000000          -0.000000
	 D(3,2,1,5)       =         3.141593         180.000000
	 D(3,2,1,6)       =        -0.000000          -0.000000
	 D(4,3,2,7)       =         3.141593         180.000000
	 D(5,1,2,7)       =         0.000000           0.000000
	 D(6,1,2,7)       =         3.141593         180.000000
	 D(7,2,3,8)       =         0.000000           0.000000
	 D(8,3,4,9)       =         0.000000           0.000000
	 D(8,3,4,10)      =         3.141593         180.000000


	        --- Internal Coordinate Step in ANG or DEG, aJ/ANG or AJ/DEG ---
	-------------------------------------------------------------------------------
	           Coordinate      Previous         Force          Change          New 
	           ----------      --------        ------          ------        ------
	               R(1,2)       1.32690       -0.02311       -0.00130       1.32560
	               R(1,5)       1.07463        0.00219        0.00003       1.07466
	               R(1,6)       1.07328        0.01822        0.00225       1.07553
	               R(2,3)       1.49228       -0.07751       -0.01176       1.48052
	               R(2,7)       1.07641        0.00775        0.00077       1.07718
	               R(3,4)       1.32690       -0.02311       -0.00130       1.32560
	               R(3,8)       1.07641        0.00775        0.00077       1.07718
	               R(4,9)       1.07463        0.00219        0.00003       1.07466
	              R(4,10)       1.07328        0.01822        0.00225       1.07553
	             B(1,2,3)     128.11609       -0.00033       -0.70989     127.40620
	             B(1,2,7)     117.69494        0.00018        0.40284     118.09779
	             B(2,1,5)     121.12130       -0.00007       -0.29221     120.82909
	             B(2,1,6)     123.12105       -0.00007       -0.19481     122.92624
	             B(2,3,4)     128.11609       -0.00033       -0.70989     127.40620
	             B(2,3,8)     114.18897        0.00014        0.30705     114.49602
	             B(3,2,7)     114.18897        0.00014        0.30705     114.49602
	             B(3,4,9)     121.12130       -0.00007       -0.29221     120.82909
	            B(3,4,10)     123.12105       -0.00007       -0.19481     122.92624
	             B(4,3,8)     117.69494        0.00018        0.40284     118.09779
	             B(5,1,6)     115.75765        0.00013        0.48702     116.24467
	            B(9,4,10)     115.75765        0.00013        0.48702     116.24467
	          *D(1,2,3,4)      -0.00000        0.00000        0.00000      -0.00000
	           D(1,2,3,8)     180.00000       -0.00000        0.00000     180.00000
	           D(2,3,4,9)     180.00000       -0.00000        0.00000     180.00000
	          D(2,3,4,10)      -0.00000        0.00000        0.00000       0.00000
	           D(3,2,1,5)     180.00000       -0.00000        0.00000     180.00000
	           D(3,2,1,6)      -0.00000        0.00000        0.00000       0.00000
	           D(4,3,2,7)     180.00000       -0.00000        0.00000     180.00000
	           D(5,1,2,7)       0.00000       -0.00000       -0.00000      -0.00000
	           D(6,1,2,7)     180.00000        0.00000        0.00000     180.00000
	           D(7,2,3,8)       0.00000       -0.00000       -0.00000      -0.00000
	           D(8,3,4,9)       0.00000       -0.00000       -0.00000      -0.00000
	          D(8,3,4,10)     180.00000        0.00000        0.00000     180.00000
	-------------------------------------------------------------------------------

	                                 ==> Convergence Check <==                                  
    
	Measures of convergence in internal coordinates in au.
    
	Criteria marked as inactive (o), active & met (*), and active & unmet ( ).

	----------------------------------------------------------------------------------------------
	   Step    Total Energy     Delta E     Max Force     RMS Force      Max Disp      RMS Disp   
	----------------------------------------------------------------------------------------------
	  Convergence Criteria     1.00e-06 *    3.00e-04 *             o    1.20e-03 *             o
	----------------------------------------------------------------------------------------------
	     2    -154.91949784   -1.65e-03      9.41e-03      2.34e-03 o    2.22e-02      6.10e-03 o  ~
	----------------------------------------------------------------------------------------------

Next Geometry in Ang 
	Fragment 1 (Ang)

	    C   0.0000000000   1.5455119694  -0.5085265763
	    C   0.0000000000   0.7402589288   0.5444646027
	    C  -0.0000000000  -0.7402589288   0.5444646027
	    C  -0.0000000000  -1.5455119694  -0.5085265763
	    H  -0.0000000000   2.6130981251  -0.3854349430
	    H   0.0000000000   1.1835297293  -1.5213101816
	    H   0.0000000000   1.1868903973   1.5246885535
	    H  -0.0000000000  -1.1868903973   1.5246885535
	    H   0.0000000000  -2.6130981251  -0.3854349430
	    H  -0.0000000000  -1.1835297293  -1.5213101816


    Structure for next step:
    Molecular point group: c2
    Full point group: C2v

    Geometry (in Angstrom), charge = 0, multiplicity = 1:

    C       
    C             1         CC1
    C             2         CC2      1       A_321
    C             3         CC1      2       A_321      1    dihedral
    H             1      CH_5_9      2      CH_512      3          D3
    H             1     CH_6_10      5      CH_615      2          D2
    H             2      CH_7_8      1      CH_721      3          D1
    H             3      CH_7_8      4      CH_721      2          D1
    H             4      CH_5_9      3      CH_512      2          D3
    H             4     CH_6_10      9      CH_615      3          D2

    A_321     =  127.4061975398
    CC1       =    1.3256028374
    CC2       =    1.4805178577
    CH_512    =  120.8290929707
    CH_5_9    =    1.0746588993
    CH_615    =  116.2446652928
    CH_6_10   =    1.0755286018
    CH_721    =  118.0977869618
    CH_7_8    =    1.0771808865
    D1        = -179.9999999997
    D2        =  179.9999999992
    D3        =  179.9999999994
    dihedral  =   -0.0000000000


Scratch directory: /tmp/
gradient() will perform analytic gradient computation.
   => Libint2 <=

    Primary   basis highest AM E, G, H:  5, 4, 3
    Auxiliary basis highest AM E, G, H:  6, 5, 4
    Onebody   basis highest AM E, G, H:  6, 5, 4
    Solid Harmonics ordering:            Gaussian

*** tstart() called on Barrys-MacBook-Pro.local
*** at Wed May 15 21:55:49 2024

   => Loading Basis Set <=

    Name: 6-31+G(D)
    Role: ORBITAL
    Keyword: BASIS
    atoms 1-4  entry C          line   119 file /Users/blink/psi4conda/share/psi4/basis/6-31pg_d_.gbs 
    atoms 5-10 entry H          line    46 file /Users/blink/psi4conda/share/psi4/basis/6-31pg_d_.gbs 


         ---------------------------------------------------------
                                   SCF
               by Justin Turney, Rob Parrish, Andy Simmonett
                          and Daniel G. A. Smith
                              RHF Reference
                        4 Threads,   3814 MiB Core
         ---------------------------------------------------------

  ==> Geometry <==

    Molecular point group: c2
    Full point group: C2v

    Geometry (in Angstrom), charge = 0, multiplicity = 1:

       Center              X                  Y                   Z               Mass       
    ------------   -----------------  -----------------  -----------------  -----------------
         C            0.000000000000     1.545511969440    -0.510236576239    12.000000000000
         C            0.000000000000     0.740258928845     0.542754602762    12.000000000000
         C            0.000000000000    -0.740258928845     0.542754602762    12.000000000000
         C           -0.000000000000    -1.545511969440    -0.510236576239    12.000000000000
         H           -0.000000000010     2.613098125097    -0.387144942882     1.007825032230
         H           -0.000000000004     1.183529729315    -1.523020181558     1.007825032230
         H           -0.000000000004     1.186890397302     1.522978553563     1.007825032230
         H            0.000000000004    -1.186890397302     1.522978553563     1.007825032230
         H            0.000000000010    -2.613098125097    -0.387144942882     1.007825032230
         H            0.000000000004    -1.183529729315    -1.523020181558     1.007825032230

  Running in c2 symmetry.

  Rotational constants: A =      0.73387  B =      0.18751  C =      0.14935 [cm^-1]
  Rotational constants: A =  22000.74811  B =   5621.28898  C =   4477.31507 [MHz]
  Nuclear repulsion =  105.031194162225560

  Charge       = 0
  Multiplicity = 1
  Electrons    = 30
  Nalpha       = 15
  Nbeta        = 15

  ==> Algorithm <==

  SCF Algorithm Type is DF.
  DIIS enabled.
  MOM disabled.
  Fractional occupation disabled.
  Guess Type is READ.
  Energy threshold   = 1.00e-08
  Density threshold  = 1.00e-08
  Integral threshold = 1.00e-12

  ==> Primary Basis <==

  Basis Set: 6-31+G(D)
    Blend: 6-31+G(D)
    Number of shells: 44
    Number of basis functions: 88
    Number of Cartesian functions: 88
    Spherical Harmonics?: false
    Max angular momentum: 2

   => Loading Basis Set <=

    Name: (6-31+G(D) AUX)
    Role: JKFIT
    Keyword: DF_BASIS_SCF
    atoms 1-4  entry C          line   194 file /Users/blink/psi4conda/share/psi4/basis/heavy-aug-cc-pvdz-jkfit.gbs 
    atoms 5-10 entry H          line   116 file /Users/blink/psi4conda/share/psi4/basis/heavy-aug-cc-pvdz-jkfit.gbs 

   => Loading Basis Set <=

    Name: 6-31+G(D)
    Role: ORBITAL
    Keyword: BASIS
    atoms 1-4  entry C          line   119 file /Users/blink/psi4conda/share/psi4/basis/6-31pg_d_.gbs 
    atoms 5-10 entry H          line    46 file /Users/blink/psi4conda/share/psi4/basis/6-31pg_d_.gbs 

  Reading orbitals from file /tmp/Butadiene_PES_2.default.91481.180.npy, no projection.

  ==> Integral Setup <==

  DFHelper Memory: AOs need 0.036 GiB; user supplied 2.794 GiB. 
  Using in-core AOs.

  ==> MemDFJK: Density-Fitted J/K Matrices <==

    J tasked:                   Yes
    K tasked:                   Yes
    wK tasked:                   No
    OpenMP threads:               4
    Memory [MiB]:              2861
    Algorithm:                 Core
    Schwarz Cutoff:           1E-12
    Mask sparsity (%):       0.1550
    Fitting Condition:        1E-10

   => Auxiliary Basis Set <=

  Basis Set: (6-31+G(D) AUX)
    Blend: HEAVY-AUG-CC-PVDZ-JKFIT
    Number of shells: 166
    Number of basis functions: 554
    Number of Cartesian functions: 554
    Spherical Harmonics?: false
    Max angular momentum: 3

  Minimum eigenvalue in the overlap matrix is 8.3492392839E-05.
  Reciprocal condition number of the overlap matrix is 9.3001610553E-06.
    Using symmetric orthogonalization.

  ==> Pre-Iterations <==

  SCF Guess: Orbitals guess was supplied from a previous computation.

   -------------------------------------------------------
    Irrep   Nso     Nmo     Nalpha   Nbeta   Ndocc  Nsocc
   -------------------------------------------------------
     A         44      44       8       8       8       0
     B         44      44       7       7       7       0
   -------------------------------------------------------
    Total      88      88      15      15      15       0
   -------------------------------------------------------

  ==> Iterations <==

                           Total Energy        Delta E     RMS |[F,P]|

   @DF-RHF iter   0:  -154.92260213350335   -1.54923e+02   6.07506e-04 
   @DF-RHF iter   1:  -154.91973371060885    2.86842e-03   7.18354e-05 DIIS
   @DF-RHF iter   2:  -154.91974832964479   -1.46190e-05   2.51060e-05 DIIS
   @DF-RHF iter   3:  -154.91974993739470   -1.60775e-06   1.30640e-05 DIIS
   @DF-RHF iter   4:  -154.91975034411212   -4.06717e-07   1.52957e-06 DIIS
   @DF-RHF iter   5:  -154.91975035367614   -9.56402e-09   3.07951e-07 DIIS
   @DF-RHF iter   6:  -154.91975035422203   -5.45896e-10   7.22074e-08 DIIS
   @DF-RHF iter   7:  -154.91975035424872   -2.66880e-11   2.40298e-08 DIIS
   @DF-RHF iter   8:  -154.91975035425148   -2.75691e-12   7.97389e-09 DIIS
  Energy and wave function converged.


  ==> Post-Iterations <==

    Orbital Energies [Eh]
    ---------------------

    Doubly Occupied:                                                      

       1A    -11.242664     1B    -11.241940     2B    -11.231363  
       2A    -11.231355     3A     -1.092540     3B     -1.002474  
       4A     -0.847926     4B     -0.732977     5A     -0.674109  
       6A     -0.617917     5B     -0.590380     6B     -0.522137  
       7A     -0.498704     7B     -0.441095     8A     -0.326366  

    Virtual:                                                              

       8B      0.076979     9A      0.084030    10A      0.091273  
       9B      0.091424    10B      0.105847    11A      0.133668  
      11B      0.141036    12A      0.148618    12B      0.164021  
      13A      0.172559    14A      0.178576    15A      0.189043  
      13B      0.204111    14B      0.224504    16A      0.235079  
      15B      0.239296    16B      0.286300    17A      0.309779  
      18A      0.325027    19A      0.352699    17B      0.392989  
      18B      0.411147    19B      0.452304    20A      0.466052  
      21A      0.502320    20B      0.596359    21B      0.632022  
      22A      0.744056    23A      0.828302    22B      0.889198  
      23B      0.936627    24A      0.940677    24B      0.979937  
      25A      1.002379    26A      1.011774    27A      1.045578  
      25B      1.085302    28A      1.171195    26B      1.213197  
      27B      1.233216    29A      1.247183    28B      1.281923  
      30A      1.289382    29B      1.302235    30B      1.354641  
      31A      1.383932    31B      1.475245    32A      1.508214  
      32B      1.604382    33B      1.724067    34B      1.752425  
      33A      1.798682    34A      1.932176    35B      2.044742  
      35A      2.084375    36A      2.224277    37A      2.328143  
      36B      2.355835    38A      2.478628    37B      2.497091  
      39A      2.588547    38B      2.613051    39B      2.621404  
      40A      2.894687    40B      2.906191    41A      2.936998  
      42A      3.005435    41B      3.245681    42B      3.475470  
      43A      4.609412    44A      4.653378    43B      4.675741  
      44B      4.934218  

    Final Occupation by Irrep:
              A     B 
    DOCC [     8,    7 ]
    NA   [     8,    7 ]
    NB   [     8,    7 ]

  @DF-RHF Final Energy:  -154.91975035425148

   => Energetics <=

    Nuclear Repulsion Energy =            105.0311941622255603
    One-Electron Energy =                -415.3139959646782131
    Two-Electron Energy =                 155.3630514482011620
    Total Energy =                       -154.9197503542514767

Computation Completed


Properties will be evaluated at   0.000000,   0.000000,   0.000000 [a0]

Properties computed using the SCF density matrix


 Multipole Moments:

 ------------------------------------------------------------------------------------
     Multipole            Electronic (a.u.)      Nuclear  (a.u.)        Total (a.u.)
 ------------------------------------------------------------------------------------

 L = 1.  Multiply by 2.5417464519 to convert [e a0] to [Debye]
 Dipole X            :          0.0000000            0.0000000            0.0000000
 Dipole Y            :          0.0000000           -0.0000000           -0.0000000
 Dipole Z            :          0.7356785           -0.7259512            0.0097273
 Magnitude           :                                                    0.0097273

 ------------------------------------------------------------------------------------

*** tstop() called on Barrys-MacBook-Pro.local at Wed May 15 21:55:49 2024
Module time:
	user time   =       2.00 seconds =       0.03 minutes
	system time =       0.09 seconds =       0.00 minutes
	total time  =          0 seconds =       0.00 minutes
Total time:
	user time   =    1011.48 seconds =      16.86 minutes
	system time =      31.08 seconds =       0.52 minutes
	total time  =      14333 seconds =     238.88 minutes

*** tstart() called on Barrys-MacBook-Pro.local
*** at Wed May 15 21:55:49 2024


         ------------------------------------------------------------
                                   SCF GRAD                          
                          Rob Parrish, Justin Turney,                
                       Andy Simmonett, and Alex Sokolov              
         ------------------------------------------------------------

  ==> Geometry <==

    Molecular point group: c2
    Full point group: C2v

    Geometry (in Angstrom), charge = 0, multiplicity = 1:

       Center              X                  Y                   Z               Mass       
    ------------   -----------------  -----------------  -----------------  -----------------
         C            0.000000000000     1.545511969440    -0.510236576239    12.000000000000
         C            0.000000000000     0.740258928845     0.542754602762    12.000000000000
         C            0.000000000000    -0.740258928845     0.542754602762    12.000000000000
         C           -0.000000000000    -1.545511969440    -0.510236576239    12.000000000000
         H           -0.000000000010     2.613098125097    -0.387144942882     1.007825032230
         H           -0.000000000004     1.183529729315    -1.523020181558     1.007825032230
         H           -0.000000000004     1.186890397302     1.522978553563     1.007825032230
         H            0.000000000004    -1.186890397302     1.522978553563     1.007825032230
         H            0.000000000010    -2.613098125097    -0.387144942882     1.007825032230
         H            0.000000000004    -1.183529729315    -1.523020181558     1.007825032230

  Nuclear repulsion =  105.031194162225560

  ==> Basis Set <==

  Basis Set: 6-31+G(D)
    Blend: 6-31+G(D)
    Number of shells: 44
    Number of basis functions: 88
    Number of Cartesian functions: 88
    Spherical Harmonics?: false
    Max angular momentum: 2

  ==> DFJKGrad: Density-Fitted SCF Gradients <==

    Gradient:                    1
    J tasked:                  Yes
    K tasked:                  Yes
    wK tasked:                  No
    OpenMP threads:              4
    Integrals threads:           4
    Memory [MiB]:             2861
    Schwarz Cutoff:          1E-12
    Fitting Condition:       1E-10

   => Auxiliary Basis Set <=

  Basis Set: (6-31+G(D) AUX)
    Blend: HEAVY-AUG-CC-PVDZ-JKFIT
    Number of shells: 166
    Number of basis functions: 554
    Number of Cartesian functions: 554
    Spherical Harmonics?: false
    Max angular momentum: 3


  -Total Gradient:
     Atom            X                  Y                   Z
    ------   -----------------  -----------------  -----------------
       1        0.000000000001    -0.000021076996     0.000143334673
       2        0.000000000000     0.000676192699     0.000200275682
       3       -0.000000000000    -0.000676192699     0.000200275682
       4       -0.000000000001     0.000021076996     0.000143334673
       5       -0.000000000000    -0.000192245939    -0.000195707247
       6       -0.000000000000     0.000437839659     0.000005042312
       7       -0.000000000000    -0.000529524272    -0.000152945420
       8        0.000000000000     0.000529524272    -0.000152945420
       9        0.000000000000     0.000192245939    -0.000195707247
      10        0.000000000000    -0.000437839659     0.000005042312


*** tstop() called on Barrys-MacBook-Pro.local at Wed May 15 21:55:49 2024
Module time:
	user time   =       1.08 seconds =       0.02 minutes
	system time =       0.07 seconds =       0.00 minutes
	total time  =          0 seconds =       0.00 minutes
Total time:
	user time   =    1012.57 seconds =      16.88 minutes
	system time =      31.15 seconds =       0.52 minutes
	total time  =      14333 seconds =     238.88 minutes

    			-----------------------------------------

    			 OPTKING 3.0: for geometry optimizations 

    			     By R.A. King, Bethel University     

    			        with contributions from          

    			    A.V. Copan, J. Cayton, A. Heide      

    			-----------------------------------------

    
	                            ===> Fragment 1 <== 

	 Z (Atomic Numbers)          Masses                          Geom                  
	       6.000000            12.000000          0.00000000  2.92059435 -0.96420739   
	       6.000000            12.000000          0.00000000  1.39888664  1.02565755   
	       6.000000            12.000000          0.00000000 -1.39888664  1.02565755   
	       6.000000            12.000000         -0.00000000 -2.92059435 -0.96420739   
	       1.000000             1.007825         -0.00000000  4.93803980 -0.73159791   
	       1.000000             1.007825         -0.00000000  2.23654705 -2.87809103   
	       1.000000             1.007825         -0.00000000  2.24289779  2.87801236   
	       1.000000             1.007825          0.00000000 -2.24289779  2.87801236   
	       1.000000             1.007825          0.00000000 -4.93803980 -0.73159791   
	       1.000000             1.007825          0.00000000 -2.23654705 -2.87809103   

	 - Coordinate -           - BOHR/RAD -       - ANG/DEG -
	 R(1,2)           =         2.505026           1.325603
	 R(1,5)           =         2.030811           1.074659
	 R(1,6)           =         2.032454           1.075529
	 R(2,3)           =         2.797773           1.480518
	 R(2,7)           =         2.035577           1.077181
	 R(3,4)           =         2.505026           1.325603
	 R(3,8)           =         2.035577           1.077181
	 R(4,9)           =         2.030811           1.074659
	 R(4,10)          =         2.032454           1.075529
	 B(1,2,3)         =         2.223658         127.406198
	 B(1,2,7)         =         2.061195         118.097787
	 B(2,1,5)         =         2.108866         120.829093
	 B(2,1,6)         =         2.145468         122.926242
	 B(2,3,4)         =         2.223658         127.406198
	 B(2,3,8)         =         1.998332         114.496015
	 B(3,2,7)         =         1.998332         114.496015
	 B(3,4,9)         =         2.108866         120.829093
	 B(3,4,10)        =         2.145468         122.926242
	 B(4,3,8)         =         2.061195         118.097787
	 B(5,1,6)         =         2.028852         116.244665
	 B(9,4,10)        =         2.028852         116.244665
	*D(1,2,3,4)       =        -0.000000          -0.000000
	 D(1,2,3,8)       =         3.141593         180.000000
	 D(2,3,4,9)       =         3.141593         180.000000
	 D(2,3,4,10)      =         0.000000           0.000000
	 D(3,2,1,5)       =         3.141593         180.000000
	 D(3,2,1,6)       =         0.000000           0.000000
	 D(4,3,2,7)       =         3.141593         180.000000
	 D(5,1,2,7)       =        -0.000000          -0.000000
	 D(6,1,2,7)       =         3.141593         180.000000
	 D(7,2,3,8)       =        -0.000000          -0.000000
	 D(8,3,4,9)       =        -0.000000          -0.000000
	 D(8,3,4,10)      =         3.141593         180.000000


	        --- Internal Coordinate Step in ANG or DEG, aJ/ANG or AJ/DEG ---
	-------------------------------------------------------------------------------
	           Coordinate      Previous         Force          Change          New 
	           ----------      --------        ------          ------        ------
	               R(1,2)       1.32560       -0.00143        0.00004       1.32564
	               R(1,5)       1.07466        0.00176        0.00024       1.07489
	               R(1,6)       1.07553        0.00125        0.00009       1.07562
	               R(2,3)       1.48052       -0.00306       -0.00038       1.48014
	               R(2,7)       1.07718        0.00296        0.00043       1.07761
	               R(3,4)       1.32560       -0.00143        0.00004       1.32564
	               R(3,8)       1.07718        0.00296        0.00043       1.07761
	               R(4,9)       1.07466        0.00176        0.00024       1.07489
	              R(4,10)       1.07553        0.00125        0.00009       1.07562
	             B(1,2,3)     127.40620       -0.00007       -0.16250     127.24370
	             B(1,2,7)     118.09779        0.00000       -0.07992     118.01787
	             B(2,1,5)     120.82909        0.00000        0.00850     120.83759
	             B(2,1,6)     122.92624       -0.00003       -0.14118     122.78506
	             B(2,3,4)     127.40620       -0.00007       -0.16250     127.24370
	             B(2,3,8)     114.49602        0.00007        0.24242     114.73843
	             B(3,2,7)     114.49602        0.00007        0.24242     114.73843
	             B(3,4,9)     120.82909        0.00000        0.00850     120.83759
	            B(3,4,10)     122.92624       -0.00003       -0.14118     122.78506
	             B(4,3,8)     118.09779        0.00000       -0.07992     118.01787
	             B(5,1,6)     116.24467        0.00003        0.13268     116.37735
	            B(9,4,10)     116.24467        0.00003        0.13268     116.37735
	          *D(1,2,3,4)      -0.00000        0.00000        0.00000      -0.00000
	           D(1,2,3,8)     180.00000        0.00000        0.00000     180.00000
	           D(2,3,4,9)     180.00000        0.00000        0.00000     180.00000
	          D(2,3,4,10)       0.00000       -0.00000       -0.00000      -0.00000
	           D(3,2,1,5)     180.00000        0.00000        0.00000     180.00000
	           D(3,2,1,6)       0.00000       -0.00000       -0.00000      -0.00000
	           D(4,3,2,7)     180.00000        0.00000        0.00000     180.00000
	           D(5,1,2,7)      -0.00000        0.00000        0.00000       0.00000
	           D(6,1,2,7)     180.00000       -0.00000        0.00000     180.00000
	           D(7,2,3,8)      -0.00000        0.00000        0.00000       0.00000
	           D(8,3,4,9)      -0.00000        0.00000        0.00000       0.00000
	          D(8,3,4,10)     180.00000       -0.00000        0.00000     180.00000
	-------------------------------------------------------------------------------

	                                 ==> Convergence Check <==                                  
    
	Measures of convergence in internal coordinates in au.
    
	Criteria marked as inactive (o), active & met (*), and active & unmet ( ).

	----------------------------------------------------------------------------------------------
	   Step    Total Energy     Delta E     Max Force     RMS Force      Max Disp      RMS Disp   
	----------------------------------------------------------------------------------------------
	  Convergence Criteria     1.00e-06 *    3.00e-04 *             o    1.20e-03 *             o
	----------------------------------------------------------------------------------------------
	     3    -154.91975035   -2.53e-04      8.57e-04      3.58e-04 o    4.23e-03      1.57e-03 o  ~
	----------------------------------------------------------------------------------------------

Next Geometry in Ang 
	Fragment 1 (Ang)

	    C  -0.0000000000   1.5423534827  -0.5105959473
	    C  -0.0000000000   0.7400678629   0.5447041128
	    C   0.0000000000  -0.7400678629   0.5447041128
	    C   0.0000000000  -1.5423534827  -0.5105959473
	    H   0.0000000000   2.6105362683  -0.3906647620
	    H  -0.0000000000   1.1749782066  -1.5215297862
	    H   0.0000000000   1.1910214990   1.5234178384
	    H  -0.0000000000  -1.1910214990   1.5234178384
	    H  -0.0000000000  -2.6105362683  -0.3906647620
	    H   0.0000000000  -1.1749782066  -1.5215297862


    Structure for next step:
    Molecular point group: c2
    Full point group: C2v

    Geometry (in Angstrom), charge = 0, multiplicity = 1:

    C       
    C             1         CC1
    C             2         CC2      1       A_321
    C             3         CC1      2       A_321      1    dihedral
    H             1      CH_5_9      2      CH_512      3          D3
    H             1     CH_6_10      5      CH_615      2          D2
    H             2      CH_7_8      1      CH_721      3          D1
    H             3      CH_7_8      4      CH_721      2          D1
    H             4      CH_5_9      3      CH_512      2          D3
    H             4     CH_6_10      9      CH_615      3          D2

    A_321     =  127.2436973926
    CC1       =    1.3256396315
    CC2       =    1.4801357258
    CH_512    =  120.8375903982
    CH_5_9    =    1.0748943914
    CH_615    =  116.3773476704
    CH_6_10   =    1.0756169485
    CH_721    =  118.0178704099
    CH_7_8    =    1.0776083419
    D1        =  179.9999999987
    D2        = -179.9999999965
    D3        = -179.9999999973
    dihedral  =   -0.0000000000


Scratch directory: /tmp/
gradient() will perform analytic gradient computation.
   => Libint2 <=

    Primary   basis highest AM E, G, H:  5, 4, 3
    Auxiliary basis highest AM E, G, H:  6, 5, 4
    Onebody   basis highest AM E, G, H:  6, 5, 4
    Solid Harmonics ordering:            Gaussian

*** tstart() called on Barrys-MacBook-Pro.local
*** at Wed May 15 21:55:50 2024

   => Loading Basis Set <=

    Name: 6-31+G(D)
    Role: ORBITAL
    Keyword: BASIS
    atoms 1-4  entry C          line   119 file /Users/blink/psi4conda/share/psi4/basis/6-31pg_d_.gbs 
    atoms 5-10 entry H          line    46 file /Users/blink/psi4conda/share/psi4/basis/6-31pg_d_.gbs 


         ---------------------------------------------------------
                                   SCF
               by Justin Turney, Rob Parrish, Andy Simmonett
                          and Daniel G. A. Smith
                              RHF Reference
                        4 Threads,   3814 MiB Core
         ---------------------------------------------------------

  ==> Geometry <==

    Molecular point group: c2
    Full point group: C2v

    Geometry (in Angstrom), charge = 0, multiplicity = 1:

       Center              X                  Y                   Z               Mass       
    ------------   -----------------  -----------------  -----------------  -----------------
         C            0.000000000000     1.542353482683    -0.511242758508    12.000000000000
         C            0.000000000000     0.740067862875     0.544057301642    12.000000000000
         C            0.000000000000    -0.740067862875     0.544057301642    12.000000000000
         C           -0.000000000000    -1.542353482683    -0.511242758508    12.000000000000
         H            0.000000000043     2.610536268326    -0.391311573210     1.007825032230
         H            0.000000000016     1.174978206556    -1.522176597338     1.007825032230
         H            0.000000000021     1.191021499032     1.522771027182     1.007825032230
         H           -0.000000000021    -1.191021499032     1.522771027182     1.007825032230
         H           -0.000000000043    -2.610536268326    -0.391311573210     1.007825032230
         H           -0.000000000016    -1.174978206556    -1.522176597338     1.007825032230

  Running in c2 symmetry.

  Rotational constants: A =      0.73199  B =      0.18811  C =      0.14965 [cm^-1]
  Rotational constants: A =  21944.64044  B =   5639.39728  C =   4486.45506 [MHz]
  Nuclear repulsion =  105.069833675778611

  Charge       = 0
  Multiplicity = 1
  Electrons    = 30
  Nalpha       = 15
  Nbeta        = 15

  ==> Algorithm <==

  SCF Algorithm Type is DF.
  DIIS enabled.
  MOM disabled.
  Fractional occupation disabled.
  Guess Type is READ.
  Energy threshold   = 1.00e-08
  Density threshold  = 1.00e-08
  Integral threshold = 1.00e-12

  ==> Primary Basis <==

  Basis Set: 6-31+G(D)
    Blend: 6-31+G(D)
    Number of shells: 44
    Number of basis functions: 88
    Number of Cartesian functions: 88
    Spherical Harmonics?: false
    Max angular momentum: 2

   => Loading Basis Set <=

    Name: (6-31+G(D) AUX)
    Role: JKFIT
    Keyword: DF_BASIS_SCF
    atoms 1-4  entry C          line   194 file /Users/blink/psi4conda/share/psi4/basis/heavy-aug-cc-pvdz-jkfit.gbs 
    atoms 5-10 entry H          line   116 file /Users/blink/psi4conda/share/psi4/basis/heavy-aug-cc-pvdz-jkfit.gbs 

   => Loading Basis Set <=

    Name: 6-31+G(D)
    Role: ORBITAL
    Keyword: BASIS
    atoms 1-4  entry C          line   119 file /Users/blink/psi4conda/share/psi4/basis/6-31pg_d_.gbs 
    atoms 5-10 entry H          line    46 file /Users/blink/psi4conda/share/psi4/basis/6-31pg_d_.gbs 

  Reading orbitals from file /tmp/Butadiene_PES_2.default.91481.180.npy, no projection.

  ==> Integral Setup <==

  DFHelper Memory: AOs need 0.036 GiB; user supplied 2.794 GiB. 
  Using in-core AOs.

  ==> MemDFJK: Density-Fitted J/K Matrices <==

    J tasked:                   Yes
    K tasked:                   Yes
    wK tasked:                   No
    OpenMP threads:               4
    Memory [MiB]:              2861
    Algorithm:                 Core
    Schwarz Cutoff:           1E-12
    Mask sparsity (%):       0.1550
    Fitting Condition:        1E-10

   => Auxiliary Basis Set <=

  Basis Set: (6-31+G(D) AUX)
    Blend: HEAVY-AUG-CC-PVDZ-JKFIT
    Number of shells: 166
    Number of basis functions: 554
    Number of Cartesian functions: 554
    Spherical Harmonics?: false
    Max angular momentum: 3

  Minimum eigenvalue in the overlap matrix is 8.4329128035E-05.
  Reciprocal condition number of the overlap matrix is 9.3921844237E-06.
    Using symmetric orthogonalization.

  ==> Pre-Iterations <==

  SCF Guess: Orbitals guess was supplied from a previous computation.

   -------------------------------------------------------
    Irrep   Nso     Nmo     Nalpha   Nbeta   Ndocc  Nsocc
   -------------------------------------------------------
     A         44      44       8       8       8       0
     B         44      44       7       7       7       0
   -------------------------------------------------------
    Total      88      88      15      15      15       0
   -------------------------------------------------------

  ==> Iterations <==

                           Total Energy        Delta E     RMS |[F,P]|

   @DF-RHF iter   0:  -154.91859269235789   -1.54919e+02   1.07265e-04 
   @DF-RHF iter   1:  -154.91975890838876   -1.16622e-03   1.93561e-05 DIIS
   @DF-RHF iter   2:  -154.91976004857358   -1.14018e-06   6.25180e-06 DIIS
   @DF-RHF iter   3:  -154.91976017330501   -1.24731e-07   2.20400e-06 DIIS
   @DF-RHF iter   4:  -154.91976018690318   -1.35982e-08   3.92999e-07 DIIS
   @DF-RHF iter   5:  -154.91976018731765   -4.14474e-10   1.43258e-07 DIIS
   @DF-RHF iter   6:  -154.91976018738072   -6.30678e-11   2.45633e-08 DIIS
   @DF-RHF iter   7:  -154.91976018738299   -2.27374e-12   4.14408e-09 DIIS
  Energy and wave function converged.


  ==> Post-Iterations <==

    Orbital Energies [Eh]
    ---------------------

    Doubly Occupied:                                                      

       1A    -11.242670     1B    -11.241944     2B    -11.231329  
       2A    -11.231321     3A     -1.092748     3B     -1.002352  
       4A     -0.847626     4B     -0.732794     5A     -0.674454  
       6A     -0.617616     5B     -0.590262     6B     -0.521921  
       7A     -0.499078     7B     -0.441194     8A     -0.326255  

    Virtual:                                                              

       8B      0.076954     9A      0.084055    10A      0.091244  
       9B      0.091432    10B      0.105790    11A      0.133708  
      11B      0.141023    12A      0.148713    12B      0.164120  
      13A      0.172565    14A      0.178425    15A      0.188819  
      13B      0.204118    14B      0.224401    16A      0.235073  
      15B      0.239354    16B      0.286314    17A      0.309756  
      18A      0.325121    19A      0.352084    17B      0.393346  
      18B      0.411533    19B      0.451967    20A      0.466008  
      21A      0.501958    20B      0.596748    21B      0.632311  
      22A      0.743979    23A      0.828590    22B      0.889140  
      23B      0.936879    24A      0.940799    24B      0.979817  
      25A      1.002680    26A      1.011609    27A      1.045340  
      25B      1.085560    28A      1.171467    26B      1.213529  
      27B      1.233028    29A      1.246880    28B      1.282783  
      30A      1.289644    29B      1.301368    30B      1.354415  
      31A      1.383495    31B      1.475261    32A      1.509464  
      32B      1.604490    33B      1.723798    34B      1.752630  
      33A      1.798680    34A      1.932179    35B      2.044600  
      35A      2.084764    36A      2.224262    37A      2.327731  
      36B      2.355717    38A      2.479879    37B      2.497550  
      39A      2.589736    38B      2.612794    39B      2.621718  
      40A      2.894015    40B      2.907478    41A      2.934968  
      42A      3.005837    41B      3.245682    42B      3.473979  
      43A      4.609721    44A      4.653294    43B      4.675690  
      44B      4.933350  

    Final Occupation by Irrep:
              A     B 
    DOCC [     8,    7 ]
    NA   [     8,    7 ]
    NB   [     8,    7 ]

  @DF-RHF Final Energy:  -154.91976018738299

   => Energetics <=

    Nuclear Repulsion Energy =            105.0698336757786109
    One-Electron Energy =                -415.3920606396827679
    Two-Electron Energy =                 155.4024667765211518
    Total Energy =                       -154.9197601873829910

Computation Completed


Properties will be evaluated at   0.000000,   0.000000,   0.000000 [a0]

Properties computed using the SCF density matrix


 Multipole Moments:

 ------------------------------------------------------------------------------------
     Multipole            Electronic (a.u.)      Nuclear  (a.u.)        Total (a.u.)
 ------------------------------------------------------------------------------------

 L = 1.  Multiply by 2.5417464519 to convert [e a0] to [Debye]
 Dipole X            :          0.0000000           -0.0000000           -0.0000000
 Dipole Y            :          0.0000000            0.0000000            0.0000000
 Dipole Z            :          0.7428129           -0.7325708            0.0102421
 Magnitude           :                                                    0.0102421

[...]

  ==> Primary Basis <==

  Basis Set: 6-31+G(D)
    Blend: 6-31+G(D)
    Number of shells: 44
    Number of basis functions: 88
    Number of Cartesian functions: 88
    Spherical Harmonics?: false
    Max angular momentum: 2

   => Loading Basis Set <=

    Name: (6-31+G(D) AUX)
    Role: JKFIT
    Keyword: DF_BASIS_SCF
    atoms 1-4  entry C          line   194 file /Users/blink/psi4conda/share/psi4/basis/heavy-aug-cc-pvdz-jkfit.gbs 
    atoms 5-10 entry H          line   116 file /Users/blink/psi4conda/share/psi4/basis/heavy-aug-cc-pvdz-jkfit.gbs 

   => Loading Basis Set <=

    Name: 6-31+G(D)
    Role: ORBITAL
    Keyword: BASIS
    atoms 1-4  entry C          line   119 file /Users/blink/psi4conda/share/psi4/basis/6-31pg_d_.gbs 
    atoms 5-10 entry H          line    46 file /Users/blink/psi4conda/share/psi4/basis/6-31pg_d_.gbs 

  Reading orbitals from file /tmp/Butadiene_PES_2.default.91481.180.npy, no projection.

  ==> Integral Setup <==

  DFHelper Memory: AOs need 0.036 GiB; user supplied 2.794 GiB. 
  Using in-core AOs.

  ==> MemDFJK: Density-Fitted J/K Matrices <==

    J tasked:                   Yes
    K tasked:                   Yes
    wK tasked:                   No
    OpenMP threads:               4
    Memory [MiB]:              2861
    Algorithm:                 Core
    Schwarz Cutoff:           1E-12
    Mask sparsity (%):       0.4649
    Fitting Condition:        1E-10

   => Auxiliary Basis Set <=

  Basis Set: (6-31+G(D) AUX)
    Blend: HEAVY-AUG-CC-PVDZ-JKFIT
    Number of shells: 166
    Number of basis functions: 554
    Number of Cartesian functions: 554
    Spherical Harmonics?: false
    Max angular momentum: 3

  Minimum eigenvalue in the overlap matrix is 6.6852455792E-05.
  Reciprocal condition number of the overlap matrix is 8.2733243505E-06.
    Using symmetric orthogonalization.

  ==> Pre-Iterations <==

  SCF Guess: Orbitals guess was supplied from a previous computation.

   -------------------------------------------------------
    Irrep   Nso     Nmo     Nalpha   Nbeta   Ndocc  Nsocc
   -------------------------------------------------------
     A         44      44       8       8       8       0
     B         44      44       7       7       7       0
   -------------------------------------------------------
    Total      88      88      15      15      15       0
   -------------------------------------------------------

  ==> Iterations <==

                           Total Energy        Delta E     RMS |[F,P]|

   @DF-RHF iter   0:  -154.92610772271749   -1.54926e+02   1.68887e-05 
   @DF-RHF iter   1:  -154.92609548869171    1.22340e-05   3.69006e-06 DIIS
   @DF-RHF iter   2:  -154.92609554617835   -5.74866e-08   1.32630e-06 DIIS
   @DF-RHF iter   3:  -154.92609555734455   -1.11662e-08   3.55205e-07 DIIS
   @DF-RHF iter   4:  -154.92609555822040   -8.75843e-10   1.45509e-07 DIIS
   @DF-RHF iter   5:  -154.92609555836179   -1.41398e-10   5.41323e-08 DIIS
   @DF-RHF iter   6:  -154.92609555837390   -1.21076e-11   1.26965e-08 DIIS
   @DF-RHF iter   7:  -154.92609555837493   -1.02318e-12   2.30294e-09 DIIS
  Energy and wave function converged.


  ==> Post-Iterations <==

    Orbital Energies [Eh]
    ---------------------

    Doubly Occupied:                                                      

       1A    -11.243636     1B    -11.242859     2A    -11.232052  
       2B    -11.232049     3A     -1.096381     3B     -1.008165  
       4A     -0.829364     4B     -0.759960     5B     -0.649670  
       5A     -0.640690     6A     -0.564482     6B     -0.548899  
       7A     -0.495277     8A     -0.444748     7B     -0.326291  

    Virtual:                                                              

       9A      0.082343     8B      0.083391    10A      0.091471  
       9B      0.099548    11A      0.112853    10B      0.120662  
      12A      0.125117    13A      0.143847    11B      0.150417  
      12B      0.165971    13B      0.173231    14A      0.180026  
      15A      0.224025    14B      0.227219    16A      0.227903  
      17A      0.265435    15B      0.296747    16B      0.299920  
      17B      0.349915    18A      0.364601    18B      0.372129  
      19A      0.398582    19B      0.427727    20A      0.468870  
      21A      0.544654    20B      0.574499    21B      0.601244  
      22B      0.786259    22A      0.830855    23A      0.893331  
      23B      0.929413    24B      0.953062    25B      0.983938  
      24A      1.005006    25A      1.026323    26B      1.050135  
      26A      1.053406    27B      1.195879    27A      1.200211  
      28A      1.228724    28B      1.238399    29B      1.266980  
      29A      1.298179    30B      1.316477    30A      1.337326  
      31A      1.388293    31B      1.425989    32A      1.599284  
      33A      1.607729    32B      1.639122    33B      1.702966  
      34A      1.811756    34B      1.934432    35A      2.060747  
      36A      2.119833    37A      2.236894    35B      2.310184  
      36B      2.414650    37B      2.423876    38B      2.487936  
      38A      2.528677    39A      2.674516    40A      2.750819  
      39B      2.773177    40B      2.815232    41A      2.979904  
      41B      3.120206    42B      3.306468    42A      3.382785  
      43A      4.635798    43B      4.663354    44A      4.664512  
      44B      4.890065  

    Final Occupation by Irrep:
              A     B 
    DOCC [     8,    7 ]
    NA   [     8,    7 ]
    NB   [     8,    7 ]

  @DF-RHF Final Energy:  -154.92609555837493

   => Energetics <=

    Nuclear Repulsion Energy =            104.1780614524680857
    One-Electron Energy =                -413.5792682759351351
    Two-Electron Energy =                 154.4751112650921527
    Total Energy =                       -154.9260955583749251

Computation Completed


Properties will be evaluated at   0.000000,   0.000000,   0.000000 [a0]

Properties computed using the SCF density matrix


 Multipole Moments:

 ------------------------------------------------------------------------------------
     Multipole            Electronic (a.u.)      Nuclear  (a.u.)        Total (a.u.)
 ------------------------------------------------------------------------------------

 L = 1.  Multiply by 2.5417464519 to convert [e a0] to [Debye]
 Dipole X            :          0.0000000           -0.0000000           -0.0000000
 Dipole Y            :          0.0000000            0.0000000            0.0000000
 Dipole Z            :          0.0010273           -0.0017057           -0.0006783
 Magnitude           :                                                    0.0006783

 ------------------------------------------------------------------------------------

*** tstop() called on Barrys-MacBook-Pro.local at Wed May 15 21:57:18 2024
Module time:
	user time   =       1.83 seconds =       0.03 minutes
	system time =       0.08 seconds =       0.00 minutes
	total time  =          1 seconds =       0.02 minutes
Total time:
	user time   =    1311.88 seconds =      21.86 minutes
	system time =      43.79 seconds =       0.73 minutes
	total time  =      14422 seconds =     240.37 minutes

*** tstart() called on Barrys-MacBook-Pro.local
*** at Wed May 15 21:57:18 2024


         ------------------------------------------------------------
                                   SCF GRAD                          
                          Rob Parrish, Justin Turney,                
                       Andy Simmonett, and Alex Sokolov              
         ------------------------------------------------------------

  ==> Geometry <==

    Molecular point group: c2
    Full point group: C2

    Geometry (in Angstrom), charge = 0, multiplicity = 1:

       Center              X                  Y                   Z               Mass       
    ------------   -----------------  -----------------  -----------------  -----------------
         C            1.737522842540     0.607766851100     0.000042078040    12.000000000000
         C            0.411435218477     0.607766851069     0.000034325585    12.000000000000
         C           -0.411435218477    -0.607766851069     0.000034325585    12.000000000000
         C           -1.737522842540    -0.607766851100     0.000042078040    12.000000000000
         H            2.299940333092     1.523773293265    -0.000423013538     1.007825032230
         H            2.304194998395    -0.307822116452    -0.000442115079     1.007825032230
         H           -0.119750601113     1.546051313879    -0.000044596261     1.007825032230
         H            0.119750601113    -1.546051313879    -0.000044596261     1.007825032230
         H           -2.299940333092    -1.523773293265    -0.000423013538     1.007825032230
         H           -2.304194998395     0.307822116452    -0.000442115079     1.007825032230

  Nuclear repulsion =  104.178061452468086

  ==> Basis Set <==

  Basis Set: 6-31+G(D)
    Blend: 6-31+G(D)
    Number of shells: 44
    Number of basis functions: 88
    Number of Cartesian functions: 88
    Spherical Harmonics?: false
    Max angular momentum: 2

  ==> DFJKGrad: Density-Fitted SCF Gradients <==

    Gradient:                    1
    J tasked:                  Yes
    K tasked:                  Yes
    wK tasked:                  No
    OpenMP threads:              4
    Integrals threads:           4
    Memory [MiB]:             2861
    Schwarz Cutoff:          1E-12
    Fitting Condition:       1E-10

   => Auxiliary Basis Set <=

  Basis Set: (6-31+G(D) AUX)
    Blend: HEAVY-AUG-CC-PVDZ-JKFIT
    Number of shells: 166
    Number of basis functions: 554
    Number of Cartesian functions: 554
    Spherical Harmonics?: false
    Max angular momentum: 3


  -Total Gradient:
     Atom            X                  Y                   Z
    ------   -----------------  -----------------  -----------------
       1       -0.000002753069    -0.000000817005     0.000079430903
       2        0.000001226261    -0.000003621442    -0.000011159987
       3       -0.000001226261     0.000003621442    -0.000011159987
       4        0.000002753069     0.000000817005     0.000079430903
       5       -0.000000182033    -0.000000164110    -0.000026420122
       6        0.000000314650     0.000000232844    -0.000032364119
       7       -0.000000876013     0.000000119971    -0.000009486676
       8        0.000000876013    -0.000000119971    -0.000009486676
       9        0.000000182033     0.000000164110    -0.000026420122
      10       -0.000000314650    -0.000000232844    -0.000032364119


*** tstop() called on Barrys-MacBook-Pro.local at Wed May 15 21:57:18 2024
Module time:
	user time   =       1.08 seconds =       0.02 minutes
	system time =       0.07 seconds =       0.00 minutes
	total time  =          0 seconds =       0.00 minutes
Total time:
	user time   =    1312.97 seconds =      21.88 minutes
	system time =      43.86 seconds =       0.73 minutes
	total time  =      14422 seconds =     240.37 minutes

    			-----------------------------------------

    			 OPTKING 3.0: for geometry optimizations 

    			     By R.A. King, Bethel University     

    			        with contributions from          

    			    A.V. Copan, J. Cayton, A. Heide      

    			-----------------------------------------

    
	                            ===> Fragment 1 <== 

	 Z (Atomic Numbers)          Masses                          Geom                  
	       6.000000            12.000000          3.28344231  1.14851290  0.00007952   
	       6.000000            12.000000          0.77749988  1.14851290  0.00006487   
	       6.000000            12.000000         -0.77749988 -1.14851290  0.00006487   
	       6.000000            12.000000         -3.28344231 -1.14851290  0.00007952   
	       1.000000             1.007825          4.34625733  2.87951420 -0.00079938   
	       1.000000             1.007825          4.35429749 -0.58169950 -0.00083548   
	       1.000000             1.007825         -0.22629584  2.92161356 -0.00008427   
	       1.000000             1.007825          0.22629584 -2.92161356 -0.00008427   
	       1.000000             1.007825         -4.34625733 -2.87951420 -0.00079938   
	       1.000000             1.007825         -4.35429749  0.58169950 -0.00083548   

	 - Coordinate -           - BOHR/RAD -       - ANG/DEG -
	 R(1,2)           =         2.505942           1.326088
	 R(1,5)           =         2.031242           1.074887
	 R(1,6)           =         2.034789           1.076764
	 R(2,3)           =         2.773869           1.467869
	 R(2,7)           =         2.037521           1.078210
	 R(3,4)           =         2.505942           1.326088
	 R(3,8)           =         2.037521           1.078210
	 R(4,9)           =         2.031242           1.074887
	 R(4,10)          =         2.034789           1.076764
	 B(1,2,3)         =         2.165893         124.096517
	 B(1,2,7)         =         2.085935         119.515263
	 B(2,1,5)         =         2.121438         121.549446
	 B(2,1,6)         =         2.125008         121.754001
	 B(2,3,4)         =         2.165893         124.096517
	 B(2,3,8)         =         2.031358         116.388219
	 B(3,2,7)         =         2.031358         116.388219
	 B(3,4,9)         =         2.121438         121.549446
	 B(3,4,10)        =         2.125008         121.754001
	 B(4,3,8)         =         2.085935         119.515263
	 B(5,1,6)         =         2.036739         116.696527
	 B(9,4,10)        =         2.036739         116.696527
	*D(1,2,3,4)       =         3.141593         180.000000
	 D(1,2,3,8)       =        -0.000089          -0.005086
	 D(2,3,4,9)       =        -3.142100        -180.029070
	 D(2,3,4,10)      =         0.000536           0.030734
	 D(3,2,1,5)       =        -3.142100        -180.029070
	 D(3,2,1,6)       =         0.000536           0.030734
	 D(4,3,2,7)       =        -0.000089          -0.005086
	 D(5,1,2,7)       =        -0.000431          -0.024667
	 D(6,1,2,7)       =         3.142206         180.035137
	 D(7,2,3,8)       =        -3.141756        -180.009363
	 D(8,3,4,9)       =        -0.000431          -0.024667
	 D(8,3,4,10)      =         3.142206         180.035137


	        --- Internal Coordinate Step in ANG or DEG, aJ/ANG or AJ/DEG ---
	-------------------------------------------------------------------------------
	           Coordinate      Previous         Force          Change          New 
	           ----------      --------        ------          ------        ------
	               R(1,2)       1.32609        0.00002        0.00000       1.32609
	               R(1,5)       1.07489        0.00000        0.00000       1.07489
	               R(1,6)       1.07676        0.00000        0.00000       1.07676
	               R(2,3)       1.46787        0.00004        0.00001       1.46787
	               R(2,7)       1.07821       -0.00000       -0.00000       1.07821
	               R(3,4)       1.32609        0.00002        0.00000       1.32609
	               R(3,8)       1.07821       -0.00000       -0.00000       1.07821
	               R(4,9)       1.07489        0.00000        0.00000       1.07489
	              R(4,10)       1.07676        0.00000        0.00000       1.07676
	             B(1,2,3)     124.09652        0.00000       -0.00008     124.09643
	             B(1,2,7)     119.51526       -0.00000       -0.00015     119.51512
	             B(2,1,5)     121.54945        0.00000        0.00008     121.54953
	             B(2,1,6)     121.75400       -0.00000       -0.00013     121.75387
	             B(2,3,4)     124.09652        0.00000       -0.00008     124.09643
	             B(2,3,8)     116.38822        0.00000        0.00023     116.38845
	             B(3,2,7)     116.38822        0.00000        0.00023     116.38845
	             B(3,4,9)     121.54945        0.00000        0.00008     121.54953
	            B(3,4,10)     121.75400       -0.00000       -0.00013     121.75387
	             B(4,3,8)     119.51526       -0.00000       -0.00015     119.51512
	             B(5,1,6)     116.69653        0.00000        0.00007     116.69660
	            B(9,4,10)     116.69653        0.00000        0.00007     116.69660
	          *D(1,2,3,4)     180.00000        0.00000        0.00000     180.00000
	           D(1,2,3,8)      -0.00509        0.00000        0.00417      -0.00091
	           D(2,3,4,9)    -180.02907        0.00000        0.02995    -179.99912
	          D(2,3,4,10)       0.03073       -0.00000       -0.02960       0.00114
	           D(3,2,1,5)    -180.02907        0.00000        0.02995    -179.99912
	           D(3,2,1,6)       0.03073       -0.00000       -0.02960       0.00114
	           D(4,3,2,7)      -0.00509        0.00000        0.00417      -0.00091
	           D(5,1,2,7)      -0.02467        0.00000        0.02569       0.00102
	           D(6,1,2,7)     180.03514       -0.00000       -0.03386     180.00127
	           D(7,2,3,8)    -180.00936        0.00000        0.00832    -180.00105
	           D(8,3,4,9)      -0.02467        0.00000        0.02569       0.00102
	          D(8,3,4,10)     180.03514       -0.00000       -0.03386     180.00127
	-------------------------------------------------------------------------------

	                                 ==> Convergence Check <==                                  
    
	Measures of convergence in internal coordinates in au.
    
	Criteria marked as inactive (o), active & met (*), and active & unmet ( ).

	----------------------------------------------------------------------------------------------
	   Step    Total Energy     Delta E     Max Force     RMS Force      Max Disp      RMS Disp   
	----------------------------------------------------------------------------------------------
	  Convergence Criteria     1.00e-06 *    3.00e-04 *             o    1.20e-03 *             o
	----------------------------------------------------------------------------------------------
	     4    -154.92609556   -2.89e-07 *    2.95e-05 *    1.27e-05 o    5.91e-04 *    2.59e-04 o  ~
	----------------------------------------------------------------------------------------------

Next Geometry in Ang 
	Fragment 1 (Ang)

	    C   1.7375255345   0.6077697423  -0.0001623673
	    C   0.4114360908   0.6077698957  -0.0001698601
	    C  -0.4114360908  -0.6077698957  -0.0001698601
	    C  -1.7375255345  -0.6077697423  -0.0001623673
	    H   2.2999445640   1.5237756153  -0.0001485755
	    H   2.3041955673  -0.3078208510  -0.0001738349
	    H  -0.1197469734   1.5460553697  -0.0001786834
	    H   0.1197469734  -1.5460553697  -0.0001786834
	    H  -2.2999445640  -1.5237756153  -0.0001485755
	    H  -2.3041955673   0.3078208510  -0.0001738349


    Final optimized geometry and variables:
    Molecular point group: c2
    Full point group: C2

    Geometry (in Angstrom), charge = 0, multiplicity = 1:

    C       
    C             1         CC1
    C             2         CC2      1       A_321
    C             3         CC1      2       A_321      1    dihedral
    H             1      CH_5_9      2      CH_512      3          D3
    H             1     CH_6_10      5      CH_615      2          D2
    H             2      CH_7_8      1      CH_721      3          D1
    H             3      CH_7_8      4      CH_721      2          D1
    H             4      CH_5_9      3      CH_512      2          D3
    H             4     CH_6_10      9      CH_615      3          D2

    A_321     =  124.0965173211
    CC1       =    1.3260876241
    CC2       =    1.4678685013
    CH_512    =  121.5494461664
    CH_5_9    =    1.0748867159
    CH_615    =  116.6965273233
    CH_6_10   =    1.0767640058
    CH_721    =  119.5152631663
    CH_7_8    =    1.0782096801
    D1        = -179.9955970658
    D2        =  179.9430798929
    D3        =  179.9709298328
    dihedral  =  179.9991910163

