
    -----------------------------------------------------------------------
          Psi4: An Open-Source Ab Initio Electronic Structure Package
                               Psi4 1.10 release

                         Git: Rev {} zzzzzzz 


    D. G. A. Smith, L. A. Burns, A. C. Simmonett, R. M. Parrish,
    M. C. Schieber, R. Galvelis, P. Kraus, H. Kruse, R. Di Remigio,
    A. Alenaizan, A. M. James, S. Lehtola, J. P. Misiewicz, M. Scheurer,
    R. A. Shaw, J. B. Schriber, Y. Xie, Z. L. Glick, D. A. Sirianni,
    J. S. O'Brien, J. M. Waldrop, A. Kumar, E. G. Hohenstein,
    B. P. Pritchard, B. R. Brooks, H. F. Schaefer III, A. Yu. Sokolov,
    K. Patkowski, A. E. DePrince III, U. Bozkaya, R. A. King,
    F. A. Evangelista, J. M. Turney, T. D. Crawford, C. D. Sherrill,
    J. Chem. Phys. 152(18) 184108 (2020). https://doi.org/10.1063/5.0006002

                            Additional Code Authors
    E. T. Seidl, C. L. Janssen, E. F. Valeev, M. L. Leininger,
    J. F. Gonthier, R. M. Richard, H. R. McAlexander, M. Saitow, X. Wang,
    P. Verma, M. H. Lechner, A. Jiang, S. Behnle, A. G. Heide,
    M. F. Herbst, D. L. Poole, T. Győri, E. C. Mitchell, J. P. Pederson,
    and A. M. Wallace

             Previous Authors, Complete List of Code Contributors,
                       and Citations for Specific Modules
    https://github.com/psi4/psi4/blob/master/codemeta.json
    https://github.com/psi4/psi4/graphs/contributors
    https://psicode.org/psi4manual/master/introduction.html#citing-psifour

    -----------------------------------------------------------------------


    Psi4 started on: Monday, 30 March 2026 03:14PM

    Process ID: 2575
    Host:       PC001.IRVING.UPEI.CA
    PSIDATADIR: /opt/anaconda3/envs/p4dev/share/psi4
    Memory:     953.7 MiB
    Threads:    4
    Addons:     a̶d̶c̶c̶, a̶m̶b̶i̶t̶, b̶s̶e̶, c̶c̶t̶3̶, c̶f̶o̶u̶r̶, c̶h̶e̶m̶p̶s̶2̶, c̶p̶p̶e̶, d̶d̶x̶,
                d̶f̶t̶d̶3̶, d̶f̶t̶d̶4̶, dkh, ecpint, einsums, f̶o̶r̶t̶e̶, g̶a̶u̶x̶c̶, g̶c̶p̶,
                g̶d̶m̶a̶, g̶e̶o̶m̶e̶t̶r̶i̶c̶, g̶p̶u̶_̶d̶f̶c̶c̶, i̶n̶t̶e̶g̶r̶a̶t̶o̶r̶x̶x̶,
                i̶p̶i̶, l̶i̶b̶e̶f̶p̶, m̶d̶i̶, m̶p̶2̶d̶, m̶r̶c̶c̶, ooo,
                o̶p̶e̶n̶f̶e̶r̶m̶i̶o̶n̶p̶s̶i̶4̶, pcmsolver, p̶s̶i̶4̶f̶o̶c̶k̶c̶i̶, p̶s̶i̶x̶a̶s̶,
                r̶e̶s̶p̶, s̶i̶m̶i̶n̶t̶, s̶n̶s̶m̶p̶2̶, v̶2̶r̶d̶m̶_̶c̶a̶s̶s̶c̶f̶
  Threads set to 4 by Python driver.

Scratch directory: /tmp/
gradient() will perform analytic gradient computation.
   => Libint2 <=

    Primary   basis highest AM E, G, H:  7, 6, 3
    Auxiliary basis highest AM E, G, H:  7, 7, 4
    Onebody   basis highest AM E, G, H:  -, -, -
    Solid Harmonics ordering:            Gaussian

*** tstart() called on PC001.IRVING.UPEI.CA
*** at Mon Mar 30 15:16:55 2026

   => Loading Basis Set <=

    Name: STO-3G
    Role: ORBITAL
    Keyword: BASIS
    atoms 1-2, 6, 9       entry C          line    61 file /opt/anaconda3/envs/p4dev/share/psi4/basis/sto-3g.gbs 
    atoms 3-5, 7-8, 10-14 entry H          line    19 file /opt/anaconda3/envs/p4dev/share/psi4/basis/sto-3g.gbs 


         ---------------------------------------------------------
                                   SCF
               by Justin Turney, Rob Parrish, Andy Simmonett
                          and Daniel G. A. Smith
                              RHF Reference
                        4 Threads,    953 MiB Core
         ---------------------------------------------------------

  ==> Geometry <==

    Molecular point group: c1
    Full point group: C1

    Geometry (in Angstrom), charge = 0, multiplicity = 1:

       Center              X                  Y                   Z               Mass       
    ------------   -----------------  -----------------  -----------------  -----------------
         C            0.618001450306    -0.357572144362    -1.836080926429    12.000000000000
         C            0.618001450306    -0.357572144362    -0.294990926429    12.000000000000
         H            0.618001450306     0.658064771610    -2.220621091984     1.007825032230
         H            1.498361245919    -0.865780648210    -2.218310934306     1.007825032230
         H           -0.261507810781    -0.865490937196    -2.220618663929     1.007825032230
         C           -0.617641366245     0.358236696254     0.294952696265    12.000000000000
         H            0.643696387533    -1.384603527211     0.064758878580     1.007825032230
         H            1.521719487087     0.131005020847     0.064811102413     1.007825032230
         C           -0.618336503894     0.356956596981     1.836121007869    12.000000000000
         H           -0.642771550737     1.385495703922    -0.064174454223     1.007825032230
         H           -1.521312360274    -0.129740820439    -0.065774014707     1.007825032230
         H           -1.497025518987     0.868050136157     2.218326011721     1.007825032230
         H           -0.622232400277    -0.658934800079     2.219954455390     1.007825032230
         H            0.262773036640     0.861351612279     2.221626668216     1.007825032230

  Running in c1 symmetry.

  Rotational constants: A =      0.77776  B =      0.11994  C =      0.11253 [cm^-1]
  Rotational constants: A =  23316.65012  B =   3595.76333  C =   3373.65649 [MHz]
  Nuclear repulsion =  130.240002513814261

  Charge       = 0
  Multiplicity = 1
  Electrons    = 34
  Nalpha       = 17
  Nbeta        = 17

  ==> Algorithm <==

  SCF Algorithm Type is DIRECT.
  DIIS enabled.
  MOM disabled.
  Fractional occupation disabled.
  Guess Type is SAD.
  Energy threshold   = 1.00e-08
  Density threshold  = 1.00e-08
  Integral threshold = 1.00e-08

  ==> Primary Basis <==

  -AO BASIS SET INFORMATION:
    Name                   = STO-3G
    Blend                  = STO-3G
    Total number of shells = 22
    Number of primitives   = 66
    Number of AO           = 30
    Number of SO           = 30
    Maximum AM             = 1
    Spherical Harmonics    = TRUE

  -Contraction Scheme:
    Atom   Type   All Primitives // Shells:
   ------ ------ --------------------------
       1     C     6s 3p // 2s 1p 
       2     C     6s 3p // 2s 1p 
       3     H     3s // 1s 
       4     H     3s // 1s 
       5     H     3s // 1s 
       6     C     6s 3p // 2s 1p 
       7     H     3s // 1s 
       8     H     3s // 1s 
       9     C     6s 3p // 2s 1p 
      10     H     3s // 1s 
      11     H     3s // 1s 
      12     H     3s // 1s 
      13     H     3s // 1s 
      14     H     3s // 1s 

   => Loading Basis Set <=

    Name: (STO-3G AUX)
    Role: JKFIT
    Keyword: DF_BASIS_SCF
    atoms 1-2, 6, 9       entry C          line   198 file /opt/anaconda3/envs/p4dev/share/psi4/basis/def2-universal-jkfit.gbs 
    atoms 3-5, 7-8, 10-14 entry H          line    18 file /opt/anaconda3/envs/p4dev/share/psi4/basis/def2-universal-jkfit.gbs 

  Starting with a DF guess...

  ==> Integral Setup <==

  DFHelper Memory: AOs need 0.005 GiB; user supplied 0.698 GiB. 
  SCF_SUBTYPE=INCORE selected. In-core MEM_DF algorithm will be used.
  Using in-core AOs.

  ==> MemDFJK: Density-Fitted J/K Matrices <==

    J tasked:                   Yes
    K tasked:                   Yes
    wK tasked:                   No
    OpenMP threads:               4
    Memory [MiB]:               715
    Algorithm:                 Core
    Schwarz Cutoff:           1E-08
    Mask sparsity (%):       0.6667
    Fitting Condition:        1E-10

   => Auxiliary Basis Set <=

  -AO BASIS SET INFORMATION:
    Name                   = (STO-3G AUX)
    Blend                  = DEF2-UNIVERSAL-JKFIT
    Total number of shells = 160
    Number of primitives   = 212
    Number of AO           = 556
    Number of SO           = 480
    Maximum AM             = 4
    Spherical Harmonics    = TRUE

  -Contraction Scheme:
    Atom   Type   All Primitives // Shells:
   ------ ------ --------------------------
       1     C     14s 10p 6d 2f 1g // 10s 8p 5d 1f 1g 
       2     C     14s 10p 6d 2f 1g // 10s 8p 5d 1f 1g 
       3     H     4s 2p 2d // 2s 2p 2d 
       4     H     4s 2p 2d // 2s 2p 2d 
       5     H     4s 2p 2d // 2s 2p 2d 
       6     C     14s 10p 6d 2f 1g // 10s 8p 5d 1f 1g 
       7     H     4s 2p 2d // 2s 2p 2d 
       8     H     4s 2p 2d // 2s 2p 2d 
       9     C     14s 10p 6d 2f 1g // 10s 8p 5d 1f 1g 
      10     H     4s 2p 2d // 2s 2p 2d 
      11     H     4s 2p 2d // 2s 2p 2d 
      12     H     4s 2p 2d // 2s 2p 2d 
      13     H     4s 2p 2d // 2s 2p 2d 
      14     H     4s 2p 2d // 2s 2p 2d 

  Minimum eigenvalue in the overlap matrix is 2.0151738157E-01.
  Reciprocal condition number of the overlap matrix is 7.7805481344E-02.
    Using symmetric orthogonalization.

  ==> Pre-Iterations <==

  SCF Guess: Superposition of Atomic Densities via on-the-fly atomic UHF (no occupation information).

   -------------------------
    Irrep   Nso     Nmo    
   -------------------------
     A         30      30 
   -------------------------
    Total      30      30
   -------------------------

  ==> Iterations <==

                           Total Energy        Delta E     RMS |[F,P]|

   @DF-RHF iter SAD:  -140.34859427824810   -1.40349e+02   0.00000e+00 
   @DF-RHF iter   1:  -153.61910374732724   -1.32705e+01   5.19737e-02 DIIS/ADIIS
   @DF-RHF iter   2:  -155.40892384200478   -1.78982e+00   1.00168e-02 DIIS/ADIIS
   @DF-RHF iter   3:  -155.46677889794694   -5.78551e-02   6.69007e-04 DIIS/ADIIS
   @DF-RHF iter   4:  -155.46714419295861   -3.65295e-04   1.44950e-04 DIIS/ADIIS
   @DF-RHF iter   5:  -155.46716130323864   -1.71103e-05   2.53230e-05 DIIS
   @DF-RHF iter   6:  -155.46716197293858   -6.69700e-07   2.97551e-06 DIIS
   @DF-RHF iter   7:  -155.46716198083942   -7.90084e-09   2.60684e-07 DIIS
   @DF-RHF iter   8:  -155.46716198089814   -5.87193e-11   2.79781e-08 DIIS
   @DF-RHF iter   9:  -155.46716198089916   -1.02318e-12   3.77921e-09 DIIS

  DF guess converged.

  ==> DirectJK: Integral-Direct J/K Matrices <==

    J tasked:                  Yes
    K tasked:                  Yes
    wK tasked:                  No
    Integrals threads:           4
    Screening Type:           CSAM
    Screening Cutoff:        1E-08
    Incremental Fock:           No

   @RHF iter  10:  -155.46664614946272   -1.55467e+02   4.38979e-06 DIIS
   @RHF iter  11:  -155.46664615794791   -8.48519e-09   7.26934e-07 DIIS
   @RHF iter  12:  -155.46664615821143   -2.63526e-10   1.18133e-07 DIIS
   @RHF iter  13:  -155.46664615822272   -1.12834e-11   2.00683e-08 DIIS
   @RHF iter  14:  -155.46664615822300   -2.84217e-13   1.14984e-09 DIIS
  Energy and wave function converged.


  ==> Post-Iterations <==

    Orbital Energies [Eh]
    ---------------------

    Doubly Occupied:                                                      

       1A    -11.038496     2A    -11.038189     3A    -11.031663  
       4A    -11.031644     5A     -1.027467     6A     -0.942602  
       7A     -0.827320     8A     -0.758441     9A     -0.610276  
      10A     -0.555470    11A     -0.541847    12A     -0.539460  
      13A     -0.485274    14A     -0.469588    15A     -0.432888  
      16A     -0.430892    17A     -0.414875  

    Virtual:                                                              

      18A      0.601265    19A      0.617399    20A      0.652043  
      21A      0.683801    22A      0.687257    23A      0.736825  
      24A      0.750667    25A      0.765562    26A      0.767629  
      27A      0.768299    28A      0.797846    29A      0.800184  
      30A      0.831531  

    Final Occupation by Irrep:
              A 
    DOCC [    17 ]
    NA   [    17 ]
    NB   [    17 ]

  @RHF Final Energy:  -155.46664615822300

   => Energetics <=

    Nuclear Repulsion Energy =            130.2400025138142610
    One-Electron Energy =                -467.0605148464813396
    Two-Electron Energy =                 181.3538661744440788
    Total Energy =                       -155.4666461582229999

Computation Completed


Properties will be evaluated at   0.000000,   0.000000,   0.000000 [a0]

Properties computed using the SCF density matrix


 Multipole Moments:

 ------------------------------------------------------------------------------------
     Multipole            Electronic (a.u.)      Nuclear  (a.u.)        Total (a.u.)
 ------------------------------------------------------------------------------------

 L = 1.  Multiply by 2.5417464519 to convert [e a0] to [Debye]
 Dipole X            :          0.0002628           -0.0002794           -0.0000166
 Dipole Y            :          0.0005494           -0.0005470            0.0000024
 Dipole Z            :          0.0000406           -0.0000207            0.0000200
 Magnitude           :                                                    0.0000261

 ------------------------------------------------------------------------------------

*** tstop() called on PC001.IRVING.UPEI.CA at Mon Mar 30 15:16:56 2026
Module time:
	user time   =       3.51 seconds =       0.06 minutes
	system time =       0.21 seconds =       0.00 minutes
	total time  =          1 seconds =       0.02 minutes
Total time:
	user time   =       3.51 seconds =       0.06 minutes
	system time =       0.21 seconds =       0.00 minutes
	total time  =          1 seconds =       0.02 minutes

*** tstart() called on PC001.IRVING.UPEI.CA
*** at Mon Mar 30 15:16:56 2026


         ------------------------------------------------------------
                                   SCF GRAD                          
                          Rob Parrish, Justin Turney,                
                       Andy Simmonett, and Alex Sokolov              
         ------------------------------------------------------------

  ==> Geometry <==

    Molecular point group: c1
    Full point group: C1

    Geometry (in Angstrom), charge = 0, multiplicity = 1:

       Center              X                  Y                   Z               Mass       
    ------------   -----------------  -----------------  -----------------  -----------------
         C            0.618001450306    -0.357572144362    -1.836080926429    12.000000000000
         C            0.618001450306    -0.357572144362    -0.294990926429    12.000000000000
         H            0.618001450306     0.658064771610    -2.220621091984     1.007825032230
         H            1.498361245919    -0.865780648210    -2.218310934306     1.007825032230
         H           -0.261507810781    -0.865490937196    -2.220618663929     1.007825032230
         C           -0.617641366245     0.358236696254     0.294952696265    12.000000000000
         H            0.643696387533    -1.384603527211     0.064758878580     1.007825032230
         H            1.521719487087     0.131005020847     0.064811102413     1.007825032230
         C           -0.618336503894     0.356956596981     1.836121007869    12.000000000000
         H           -0.642771550737     1.385495703922    -0.064174454223     1.007825032230
         H           -1.521312360274    -0.129740820439    -0.065774014707     1.007825032230
         H           -1.497025518987     0.868050136157     2.218326011721     1.007825032230
         H           -0.622232400277    -0.658934800079     2.219954455390     1.007825032230
         H            0.262773036640     0.861351612279     2.221626668216     1.007825032230

  Nuclear repulsion =  130.240002513814261

  ==> Basis Set <==

  -AO BASIS SET INFORMATION:
    Name                   = STO-3G
    Blend                  = STO-3G
    Total number of shells = 22
    Number of primitives   = 66
    Number of AO           = 30
    Number of SO           = 30
    Maximum AM             = 1
    Spherical Harmonics    = TRUE

  -Contraction Scheme:
    Atom   Type   All Primitives // Shells:
   ------ ------ --------------------------
       1     C     6s 3p // 2s 1p 
       2     C     6s 3p // 2s 1p 
       3     H     3s // 1s 
       4     H     3s // 1s 
       5     H     3s // 1s 
       6     C     6s 3p // 2s 1p 
       7     H     3s // 1s 
       8     H     3s // 1s 
       9     C     6s 3p // 2s 1p 
      10     H     3s // 1s 
      11     H     3s // 1s 
      12     H     3s // 1s 
      13     H     3s // 1s 
      14     H     3s // 1s 

  ==> DirectJKGrad: Integral-Direct SCF Gradients <==

    Gradient:                    1
    J tasked:                  Yes
    K tasked:                  Yes
    wK tasked:                  No
    Integrals threads:           4
    Schwarz Cutoff:          1E-08


  -Nuclear Gradient:
     Atom            X                  Y                   Z
    ------   -----------------  -----------------  -----------------
       1       -1.118214658105     0.647375190472     5.762105077200
       2       -3.670335510508     2.125010293231    -0.811856891071
       3       -0.152251998097    -1.710369909748     1.247622021638
       4       -1.604521514204     0.926390958916     1.109998549933
       5        1.405279423092     0.987420125829     1.247289764698
       6        3.668288143061    -2.129066105928     0.810837662490
       7       -0.385822692508     2.143788532763    -0.651980984565
       8       -2.051592830554    -0.731962688746    -0.652211854989
       9        1.120060090622    -0.643559875934    -5.761228696130
      10        0.384477051634    -2.144468421789     0.650792295911
      11        2.051553671644     0.730404749018     0.653694140888
      12        1.601823175186    -0.931088547462    -1.109949555650
      13        0.159109724864     1.711115929954    -1.245888126504
      14       -1.407852076128    -0.980990230577    -1.249223403849


  -Core Hamiltonian Gradient:
     Atom            X                  Y                   Z
    ------   -----------------  -----------------  -----------------
       1        2.345931990684    -1.358308923604   -10.739411870792
       2        6.502772511515    -3.764177659885     0.906878005722
       3        0.294301219505     4.992525280188    -3.062658585347
       4        4.473352928643    -2.582508626326    -2.760613612480
       5       -4.176492726303    -2.752152180600    -3.062011024473
       6       -6.499925823132     3.772646001125    -0.904483452993
       7        0.806578251666    -6.009846002616     1.935120009918
       8        5.614651938695     2.290103907580     1.935599640408
       9       -2.348554521992     1.350733701951    10.737706935084
      10       -0.803087352257     6.011280957434    -1.932300826070
      11       -5.614190457361    -2.286100104103    -1.940860919614
      12       -4.465273299635     2.596163476320     2.760500009193
      13       -0.314259085249    -4.993960478256     3.058645378827
      14        4.184194425221     2.733600650792     3.067890312617


  -Overlap Gradient:
     Atom            X                  Y                   Z
    ------   -----------------  -----------------  -----------------
       1       -0.000347783141     0.000204245099    -0.046279129384
       2        0.038613850416    -0.022381632404     0.027724768743
       3        0.000143100317    -0.162387011097     0.062872974497
       4       -0.140880345034     0.081322471407     0.062951032663
       5        0.140690025862     0.081092440679     0.062874288847
       6       -0.038563457957     0.022378425517    -0.027775300466
       7       -0.005138689443     0.163208945066    -0.058125085031
       8       -0.144142930828    -0.076721738079    -0.058132533450
       9        0.000299432606    -0.000222234121     0.046317099293
      10        0.005053208681    -0.163244074274     0.058047503568
      11        0.144124713194     0.076629239504     0.058301492956
      12        0.140604057708    -0.081785680065    -0.062950527180
      13        0.000488564776     0.162424106804    -0.062780394192
      14       -0.140943747158    -0.080517504037    -0.063046190866


  -Coulomb Gradient:
     Atom            X                  Y                   Z
    ------   -----------------  -----------------  -----------------
       1       -1.228862845703     0.711595168544     4.943359512634
       2       -2.804112213181     1.622754302239    -0.072871164745
       3       -0.142069238141    -3.425192011220     1.870664880031
       4       -2.992825792530     1.727698580196     1.705707060573
       5        2.895071136404     1.836279031768     1.870349103096
       6        2.803334931185    -1.627149901975     0.071408355862
       7       -0.425507719229     4.009074081409    -1.333845713736
       8       -3.689486521023    -1.625160807315    -1.334102852537
       9        1.229606675263    -0.707859323919    -4.942447698550
      10        0.423280891889    -4.009864165808     1.332124620864
      11        3.689060978440     1.622628637113     1.338003261721
      12        2.987220036249    -1.737062348259    -1.705640863139
      13        0.155714776218     3.425923531306    -1.868281788970
      14       -2.900425095840    -1.823664774077    -1.874426713104


  -Exchange Gradient:
     Atom            X                  Y                   Z
    ------   -----------------  -----------------  -----------------
       1        0.001500913881    -0.000876325086     0.080194705795
       2       -0.066903047007     0.038785905304    -0.049825361825
       3       -0.000127325527     0.305421665134    -0.118480169107
       4        0.264873998945    -0.152896616556    -0.118033609565
       5       -0.264542408473    -0.152644472984    -0.118482439017
       6        0.066796386828    -0.038758537518     0.049939776304
       7        0.009892352093    -0.306231685041     0.108803194964
       8        0.270582145545     0.143735453364     0.108817369120
       9       -0.001394984317     0.000891640031    -0.080283482355
      10       -0.009734309705     0.306289508850    -0.108661479582
      11       -0.270542919777    -0.143558830624    -0.109137381579
      12       -0.264357802867     0.153771118960     0.118029520950
      13       -0.001059826946    -0.305487105695     0.118309357630
      14        0.265016827327     0.151558281861     0.118809998266


  -Total Gradient:
     Atom            X                  Y                   Z
    ------   -----------------  -----------------  -----------------
       1        0.000007617616    -0.000010644575    -0.000031704546
       2        0.000035591235    -0.000008791515     0.000049356824
       3       -0.000004241943    -0.000001986743     0.000021121711
       4       -0.000000724180     0.000006767636     0.000009421125
       5        0.000005450581    -0.000005055308     0.000019693152
       6       -0.000069820014     0.000049881221    -0.000072958803
       7        0.000001502578    -0.000006128419    -0.000028578450
       8        0.000011801835    -0.000005873195    -0.000030231447
       9        0.000016692182    -0.000016091992     0.000064157342
      10       -0.000010509758    -0.000006195587     0.000002114690
      11        0.000005986141     0.000003690908     0.000000594372
      12        0.000016166642    -0.000001980507    -0.000011415825
      13       -0.000005846337     0.000015984113     0.000004426790
      14       -0.000009666578    -0.000013576038     0.000004003065


*** tstop() called on PC001.IRVING.UPEI.CA at Mon Mar 30 15:16:56 2026
Module time:
	user time   =       0.35 seconds =       0.01 minutes
	system time =       0.01 seconds =       0.00 minutes
	total time  =          0 seconds =       0.00 minutes
Total time:
	user time   =       3.87 seconds =       0.06 minutes
	system time =       0.22 seconds =       0.00 minutes
	total time  =          1 seconds =       0.02 minutes

    			-----------------------------------------

    			 OPTKING 3.0: for geometry optimizations 

    			     By R.A. King, Bethel University     

    			        with contributions from          

    			    A.V. Copan, J. Cayton, A. Heide      

    			-----------------------------------------

    
	                            ===> Fragment 1 <== 

	 Z (Atomic Numbers)          Masses                          Geom                  
	       6.000000            12.000000          1.16785349 -0.67571342 -3.46969010   
	       6.000000            12.000000          1.16785349 -0.67571342 -0.55745206   
	       1.000000             1.007825          1.16785349  1.24356219 -4.19636569   
	       1.000000             1.007825          2.83149239 -1.63608831 -4.19200013   
	       1.000000             1.007825         -0.49417814 -1.63554084 -4.19636110   
	       6.000000            12.000000         -1.16717303  0.67696924  0.55737982   
	       1.000000             1.007825          1.21640988 -2.61652146  0.12237654   
	       1.000000             1.007825          2.87563307  0.24756361  0.12247523   
	       6.000000            12.000000         -1.16848665  0.67455021  3.46976584   
	       1.000000             1.007825         -1.21466219  2.61820743 -0.12127214   
	       1.000000             1.007825         -2.87486371 -0.24517462 -0.12429487   
	       1.000000             1.007825         -2.82896823  1.64037702  4.19202862   
	       1.000000             1.007825         -1.17584882 -1.24520631  4.19510593   
	       1.000000             1.007825          0.49656907  1.62771864  4.19826596   

	 - Coordinate -           - BOHR/RAD -       - ANG/DEG -
	 R(1,2)           =         2.912238           1.541090
	 R(1,3)           =         2.052237           1.085997
	 R(1,4)           =         2.052254           1.086006
	 R(1,5)           =         2.052235           1.085996
	 R(2,6)           =         2.919752           1.545066
	 R(2,7)           =         2.057003           1.088519
	 R(2,8)           =         2.057001           1.088518
	 R(6,9)           =         2.912387           1.541169
	 R(6,10)          =         2.056995           1.088515
	 R(6,11)          =         2.056997           1.088516
	 R(9,12)          =         2.052239           1.085998
	 R(9,13)          =         2.052227           1.085992
	 R(9,14)          =         2.052231           1.085994
	 B(1,2,6)         =         1.962566         112.446725
	 B(1,2,7)         =         1.907624         109.298807
	 B(1,2,8)         =         1.907675         109.301738
	 B(2,1,3)         =         1.932737         110.737654
	 B(2,1,4)         =         1.930460         110.607207
	 B(2,1,5)         =         1.932735         110.737537
	 B(2,6,9)         =         1.962539         112.445221
	 B(2,6,10)        =         1.906788         109.250918
	 B(2,6,11)        =         1.906787         109.250874
	 B(3,1,4)         =         1.889165         108.241169
	 B(3,1,5)         =         1.888113         108.180910
	 B(4,1,5)         =         1.889166         108.241266
	 B(6,2,7)         =         1.906892         109.256891
	 B(6,2,8)         =         1.906897         109.257131
	 B(6,9,12)        =         1.930410         110.604358
	 B(6,9,13)        =         1.932875         110.745577
	 B(6,9,14)        =         1.932884         110.746117
	 B(7,2,8)         =         1.869887         107.136637
	 B(9,6,10)        =         1.907839         109.311100
	 B(9,6,11)        =         1.907784         109.308000
	 B(10,6,11)       =         1.869799         107.131610
	 B(12,9,13)       =         1.889094         108.237132
	 B(12,9,14)       =         1.889091         108.236937
	 B(13,9,14)       =         1.888010         108.175020
	 D(1,2,6,9)       =         3.140570         179.941429
	 D(1,2,6,10)      =        -1.021146         -58.507336
	 D(1,2,6,11)      =         1.019170          58.394160
	 D(2,6,9,12)      =         3.139867         179.901135
	 D(2,6,9,13)      =        -1.049011         -60.103908
	 D(2,6,9,14)      =         1.045558          59.906070
	 D(3,1,2,6)       =         1.045736          59.916254
	 D(3,1,2,7)       =        -3.116579        -178.566836
	 D(3,1,2,8)       =        -1.075175         -61.603010
	 D(4,1,2,6)       =         3.140074         179.912961
	 D(4,1,2,7)       =        -1.022242         -58.570129
	 D(4,1,2,8)       =         1.019162          58.393697
	 D(5,1,2,6)       =        -1.048773         -60.090287
	 D(5,1,2,7)       =         1.072097          61.426623
	 D(5,1,2,8)       =         3.113501         178.390449
	 D(7,2,6,9)       =         1.019283          58.400623
	 D(7,2,6,10)      =         3.140752         179.951858
	 D(7,2,6,11)      =        -1.102117         -63.146646
	 D(8,2,6,9)       =        -1.021260         -58.513876
	 D(8,2,6,10)      =         1.100209          63.037359
	 D(8,2,6,11)      =         3.140525         179.938855
	 D(10,6,9,12)     =         1.018997          58.384210
	 D(10,6,9,13)     =         3.113304         178.379167
	 D(10,6,9,14)     =        -1.075312         -61.610855
	 D(11,6,9,12)     =        -1.022487         -58.584164
	 D(11,6,9,13)     =         1.071821          61.410793
	 D(11,6,9,14)     =        -3.116796        -178.579229


	        --- Internal Coordinate Step in ANG or DEG, aJ/ANG or AJ/DEG ---
	-------------------------------------------------------------------------------
	           Coordinate      Previous         Force          Change          New 
	           ----------      --------        ------          ------        ------
	               R(1,2)       1.54109        0.00015        0.00003       1.54112
	               R(1,3)       1.08600        0.00008        0.00001       1.08601
	               R(1,4)       1.08601        0.00006        0.00001       1.08602
	               R(1,5)       1.08600        0.00007        0.00001       1.08601
	               R(2,6)       1.54507       -0.00047       -0.00011       1.54496
	               R(2,7)       1.08852        0.00003        0.00001       1.08852
	               R(2,8)       1.08852        0.00002        0.00000       1.08852
	               R(6,9)       1.54117       -0.00050       -0.00011       1.54106
	              R(6,10)       1.08852        0.00005        0.00001       1.08852
	              R(6,11)       1.08852        0.00006        0.00001       1.08853
	              R(9,12)       1.08600        0.00015        0.00003       1.08603
	              R(9,13)       1.08599        0.00011        0.00002       1.08601
	              R(9,14)       1.08599        0.00010        0.00002       1.08601
	             B(1,2,6)     112.44673        0.00000        0.00468     112.45141
	             B(1,2,7)     109.29881        0.00000        0.01379     109.31260
	             B(1,2,8)     109.30174        0.00000        0.01080     109.31254
	             B(2,1,3)     110.73765        0.00000        0.00811     110.74577
	             B(2,1,4)     110.60721        0.00000        0.00026     110.60747
	             B(2,1,5)     110.73754        0.00000        0.00713     110.74467
	             B(2,6,9)     112.44522        0.00000        0.00738     112.45260
	            B(2,6,10)     109.25092       -0.00000       -0.00346     109.24746
	            B(2,6,11)     109.25087       -0.00000       -0.00274     109.24813
	             B(3,1,4)     108.24117       -0.00000       -0.00502     108.23615
	             B(3,1,5)     108.18091       -0.00000       -0.00626     108.17465
	             B(4,1,5)     108.24127       -0.00000       -0.00491     108.23636
	             B(6,2,7)     109.25689       -0.00000       -0.01119     109.24571
	             B(6,2,8)     109.25713       -0.00000       -0.01258     109.24455
	            B(6,9,12)     110.60436        0.00000        0.00551     110.60987
	            B(6,9,13)     110.74558       -0.00000       -0.00536     110.74021
	            B(6,9,14)     110.74612       -0.00000       -0.00488     110.74123
	             B(7,2,8)     107.13664       -0.00000       -0.00607     107.13057
	            B(9,6,10)     109.31110       -0.00000       -0.00296     109.30814
	            B(9,6,11)     109.30800       -0.00000       -0.00017     109.30783
	           B(10,6,11)     107.13161        0.00000        0.00170     107.13331
	           B(12,9,13)     108.23713        0.00000        0.00147     108.23860
	           B(12,9,14)     108.23694        0.00000        0.00145     108.23839
	           B(13,9,14)     108.17502        0.00000        0.00203     108.17705
	           D(1,2,6,9)     179.94143        0.00000        0.05248     179.99391
	          D(1,2,6,10)     -58.50734        0.00000        0.05120     -58.45614
	          D(1,2,6,11)      58.39416        0.00000        0.04972      58.44388
	          D(2,6,9,12)     179.90114        0.00000        0.10163     180.00276
	          D(2,6,9,13)     -60.10391        0.00000        0.10357     -60.00034
	          D(2,6,9,14)      59.90607        0.00000        0.09939      60.00546
	           D(3,1,2,6)      59.91625        0.00000        0.08920      60.00546
	           D(3,1,2,7)    -178.56684       -0.00000        0.08776    -178.47907
	           D(3,1,2,8)     -61.60301        0.00000        0.09450     -61.50851
	           D(4,1,2,6)     179.91296        0.00000        0.08839     180.00135
	           D(4,1,2,7)     -58.57013       -0.00000        0.08694     -58.48319
	           D(4,1,2,8)      58.39370        0.00000        0.09369      58.48738
	           D(5,1,2,6)     -60.09029        0.00000        0.08706     -60.00323
	           D(5,1,2,7)      61.42662       -0.00000        0.08562      61.51224
	           D(5,1,2,8)     178.39045        0.00000        0.09236     178.48281
	           D(7,2,6,9)      58.40062       -0.00000        0.03969      58.44032
	          D(7,2,6,10)     179.95186       -0.00000        0.03841     179.99027
	          D(7,2,6,11)     -63.14665       -0.00000        0.03693     -63.10972
	           D(8,2,6,9)     -58.51388        0.00000        0.06051     -58.45337
	          D(8,2,6,10)      63.03736        0.00000        0.05922      63.09658
	          D(8,2,6,11)     179.93885        0.00000        0.05774     179.99660
	         D(10,6,9,12)      58.38421        0.00000        0.10319      58.48740
	         D(10,6,9,13)     178.37917        0.00000        0.10513     178.48430
	         D(10,6,9,14)     -61.61086        0.00000        0.10096     -61.50989
	         D(11,6,9,12)     -58.58416        0.00000        0.10293     -58.48123
	         D(11,6,9,13)      61.41079        0.00000        0.10487      61.51566
	         D(11,6,9,14)    -178.57923        0.00000        0.10070    -178.47853
	-------------------------------------------------------------------------------

	                                 ==> Convergence Check <==                                  
    
	Measures of convergence in internal coordinates in au.
    
	Criteria marked as inactive (o), active & met (*), and active & unmet ( ).

	----------------------------------------------------------------------------------------------~
	   Step    Total Energy     Delta E     Max Force     RMS Force      Max Disp      RMS Disp   ~
	----------------------------------------------------------------------------------------------~
	  Convergence Criteria     1.00e-06 *    3.00e-04 *             o    1.20e-03 *             o~
	----------------------------------------------------------------------------------------------~
	     1    -155.46664616   -1.55e+02      6.12e-05 *    1.52e-05 o    1.83e-03      9.53e-04 o  ~
	----------------------------------------------------------------------------------------------

Next Geometry in Ang 
	Fragment 1 (Ang)

	    C   0.6181047565  -0.3573225247  -1.8361112619
	    C   0.6177555651  -0.3578973076  -0.2949869066
	    H   0.6199950545   0.6584148373  -2.2204209566
	    H   1.4976618331  -0.8669422727  -2.2183404180
	    H  -0.2621682319  -0.8635508213  -2.2211685117
	    C  -0.6177370909   0.3578877360   0.2950196541
	    H   0.6431166047  -1.3849876973   0.0646347101
	    H   1.5213974356   0.1304012409   0.0653971320
	    C  -0.6181897499   0.3571980929   1.8360745058
	    H  -0.6430310871   1.3850340175  -0.0644471562
	    H  -1.5214213749  -0.1303309839  -0.0653783769
	    H  -1.4977813449   0.8667579055   2.2183281147
	    H  -0.6200564197  -0.6586062124   2.2202102892
	    H   0.2620810467   0.8634095060   2.2211689905


    Structure for next step:
    Molecular point group: c1
    Full point group: C1

    Geometry (in Angstrom), charge = 0, multiplicity = 1:

    C       
    C             1    1.541125
    H             1    1.086011      2  110.745766
    H             1    1.086017      2  110.607466      3  119.995888
    H             1    1.086010      2  110.744669      3 -120.008686
    C             2    1.544959      1  112.451410      3   60.005458
    H             2    1.088524      1  109.312599      6  121.515467
    H             2    1.088522      1  109.312541      6 -121.513964
    C             6    1.541055      2  112.452596      1    dihedral
    H             6    1.088525      2  109.247455      9  121.549951
    H             6    1.088526      2  109.248134      9 -121.550034
    H             9    1.086025      6  110.609866     10   58.487402
    H             9    1.086012      6  110.740213     12  119.996897
    H             9    1.086013      6  110.741234     12 -119.997296

    dihedral  =  179.9939137441


Scratch directory: /tmp/
gradient() will perform analytic gradient computation.
   => Libint2 <=

    Primary   basis highest AM E, G, H:  7, 6, 3
    Auxiliary basis highest AM E, G, H:  7, 7, 4
    Onebody   basis highest AM E, G, H:  -, -, -
    Solid Harmonics ordering:            Gaussian

*** tstart() called on PC001.IRVING.UPEI.CA
*** at Mon Mar 30 15:16:57 2026

   => Loading Basis Set <=

    Name: STO-3G
    Role: ORBITAL
    Keyword: BASIS
    atoms 1-2, 6, 9       entry C          line    61 file /opt/anaconda3/envs/p4dev/share/psi4/basis/sto-3g.gbs 
    atoms 3-5, 7-8, 10-14 entry H          line    19 file /opt/anaconda3/envs/p4dev/share/psi4/basis/sto-3g.gbs 


         ---------------------------------------------------------
                                   SCF
               by Justin Turney, Rob Parrish, Andy Simmonett
                          and Daniel G. A. Smith
                              RHF Reference
                        4 Threads,    953 MiB Core
         ---------------------------------------------------------

  ==> Geometry <==

    Molecular point group: c1
    Full point group: C1

    Geometry (in Angstrom), charge = 0, multiplicity = 1:

       Center              X                  Y                   Z               Mass       
    ------------   -----------------  -----------------  -----------------  -----------------
         C            0.618340655443    -0.356875397042    -1.836116778233    12.000000000000
         C            0.618340655443    -0.356875397042    -0.294992276134    12.000000000000
         H            0.618340655443     0.658720161599    -2.220805697384     1.007825032230
         H            1.498714815099    -0.865075411723    -2.218355120407     1.007825032230
         H           -0.261119091606    -0.864809503892    -2.220785732599     1.007825032230
         C           -0.618287625178     0.356935206706     0.295027207492    12.000000000000
         H            0.645606529573    -1.383784799114     0.065006626981     1.007825032230
         H            1.521195507792     0.133161269352     0.065004861575     1.007825032230
         C           -0.618390904326     0.356820136988     1.836082272220    12.000000000000
         H           -0.645486520212     1.383900677252    -0.064816925276     1.007825032230
         H           -1.521185035820    -0.133021711712    -0.064983942794     1.007825032230
         H           -1.498799470407     0.864960164258     2.218345097398     1.007825032230
         H           -0.618367196608    -0.658842387799     2.220597299687     1.007825032230
         H            0.261066689310     0.864737370351     2.220788468315     1.007825032230

  Running in c1 symmetry.

  Rotational constants: A =      0.77785  B =      0.11994  C =      0.11254 [cm^-1]
  Rotational constants: A =  23319.25675  B =   3595.80353  C =   3373.74461 [MHz]
  Nuclear repulsion =  130.242022266108876

  Charge       = 0
  Multiplicity = 1
  Electrons    = 34
  Nalpha       = 17
  Nbeta        = 17

  ==> Algorithm <==

  SCF Algorithm Type is DIRECT.
  DIIS enabled.
  MOM disabled.
  Fractional occupation disabled.
  Guess Type is READ.
  Energy threshold   = 1.00e-08
  Density threshold  = 1.00e-08
  Integral threshold = 1.00e-08

  ==> Primary Basis <==

  -AO BASIS SET INFORMATION:
    Name                   = STO-3G
    Blend                  = STO-3G
    Total number of shells = 22
    Number of primitives   = 66
    Number of AO           = 30
    Number of SO           = 30
    Maximum AM             = 1
    Spherical Harmonics    = TRUE

  -Contraction Scheme:
    Atom   Type   All Primitives // Shells:
   ------ ------ --------------------------
       1     C     6s 3p // 2s 1p 
       2     C     6s 3p // 2s 1p 
       3     H     3s // 1s 
       4     H     3s // 1s 
       5     H     3s // 1s 
       6     C     6s 3p // 2s 1p 
       7     H     3s // 1s 
       8     H     3s // 1s 
       9     C     6s 3p // 2s 1p 
      10     H     3s // 1s 
      11     H     3s // 1s 
      12     H     3s // 1s 
      13     H     3s // 1s 
      14     H     3s // 1s 

   => Loading Basis Set <=

    Name: (STO-3G AUX)
    Role: JKFIT
    Keyword: DF_BASIS_SCF
    atoms 1-2, 6, 9       entry C          line   198 file /opt/anaconda3/envs/p4dev/share/psi4/basis/def2-universal-jkfit.gbs 
    atoms 3-5, 7-8, 10-14 entry H          line    18 file /opt/anaconda3/envs/p4dev/share/psi4/basis/def2-universal-jkfit.gbs 

   => Loading Basis Set <=

    Name: STO-3G
    Role: ORBITAL
    Keyword: BASIS
    atoms 1-2, 6, 9       entry C          line    61 file /opt/anaconda3/envs/p4dev/share/psi4/basis/sto-3g.gbs 
    atoms 3-5, 7-8, 10-14 entry H          line    19 file /opt/anaconda3/envs/p4dev/share/psi4/basis/sto-3g.gbs 

  Reading orbitals from file /tmp/butane_PES_points_1.default.2575.180.npy, no projection.

  Starting with a DF guess...

  ==> Integral Setup <==

  DFHelper Memory: AOs need 0.005 GiB; user supplied 0.698 GiB. 
  SCF_SUBTYPE=INCORE selected. In-core MEM_DF algorithm will be used.
  Using in-core AOs.

  ==> MemDFJK: Density-Fitted J/K Matrices <==

    J tasked:                   Yes
    K tasked:                   Yes
    wK tasked:                   No
    OpenMP threads:               4
    Memory [MiB]:               715
    Algorithm:                 Core
    Schwarz Cutoff:           1E-08
    Mask sparsity (%):       0.6667
    Fitting Condition:        1E-10

   => Auxiliary Basis Set <=

  -AO BASIS SET INFORMATION:
    Name                   = (STO-3G AUX)
    Blend                  = DEF2-UNIVERSAL-JKFIT
    Total number of shells = 160
    Number of primitives   = 212
    Number of AO           = 556
    Number of SO           = 480
    Maximum AM             = 4
    Spherical Harmonics    = TRUE

  -Contraction Scheme:
    Atom   Type   All Primitives // Shells:
   ------ ------ --------------------------
       1     C     14s 10p 6d 2f 1g // 10s 8p 5d 1f 1g 
       2     C     14s 10p 6d 2f 1g // 10s 8p 5d 1f 1g 
       3     H     4s 2p 2d // 2s 2p 2d 
       4     H     4s 2p 2d // 2s 2p 2d 
       5     H     4s 2p 2d // 2s 2p 2d 
       6     C     14s 10p 6d 2f 1g // 10s 8p 5d 1f 1g 
       7     H     4s 2p 2d // 2s 2p 2d 
       8     H     4s 2p 2d // 2s 2p 2d 
       9     C     14s 10p 6d 2f 1g // 10s 8p 5d 1f 1g 
      10     H     4s 2p 2d // 2s 2p 2d 
      11     H     4s 2p 2d // 2s 2p 2d 
      12     H     4s 2p 2d // 2s 2p 2d 
      13     H     4s 2p 2d // 2s 2p 2d 
      14     H     4s 2p 2d // 2s 2p 2d 

  Minimum eigenvalue in the overlap matrix is 2.0150741881E-01.
  Reciprocal condition number of the overlap matrix is 7.7799765343E-02.
    Using symmetric orthogonalization.

  ==> Pre-Iterations <==

  SCF Guess: Orbitals guess was supplied from a previous computation.

   -------------------------------------------------------
    Irrep   Nso     Nmo     Nalpha   Nbeta   Ndocc  Nsocc
   -------------------------------------------------------
     A         30      30      17      17      17       0
   -------------------------------------------------------
    Total      30      30      17      17      17       0
   -------------------------------------------------------

  ==> Iterations <==

                           Total Energy        Delta E     RMS |[F,P]|

   @DF-RHF iter   0:  -155.46715397121500   -1.55467e+02   7.71530e-05 
   @DF-RHF iter   1:  -155.46716161117203   -7.63996e-06   2.08158e-05 DIIS
   @DF-RHF iter   2:  -155.46716202362026   -4.12448e-07   6.56954e-06 DIIS
   @DF-RHF iter   3:  -155.46716206941767   -4.57974e-08   1.64735e-07 DIIS
   @DF-RHF iter   4:  -155.46716206943626   -1.85878e-11   3.33857e-08 DIIS
   @DF-RHF iter   5:  -155.46716206943728   -1.02318e-12   3.98156e-09 DIIS

  DF guess converged.

  ==> DirectJK: Integral-Direct J/K Matrices <==

    J tasked:                  Yes
    K tasked:                  Yes
    wK tasked:                  No
    Integrals threads:           4
    Screening Type:           CSAM
    Screening Cutoff:        1E-08
    Incremental Fock:           No

   @RHF iter   6:  -155.46664623500553   -1.55467e+02   4.38989e-06 DIIS
   @RHF iter   7:  -155.46664624349157   -8.48604e-09   7.26986e-07 DIIS
   @RHF iter   8:  -155.46664624375501   -2.63441e-10   1.18132e-07 DIIS
   @RHF iter   9:  -155.46664624376604   -1.10276e-11   2.00689e-08 DIIS
   @RHF iter  10:  -155.46664624376635   -3.12639e-13   1.14943e-09 DIIS
  Energy and wave function converged.


  ==> Post-Iterations <==

    Orbital Energies [Eh]
    ---------------------

    Doubly Occupied:                                                      

       1A    -11.038492     2A    -11.038186     3A    -11.031670  
       4A    -11.031652     5A     -1.027489     6A     -0.942601  
       7A     -0.827334     8A     -0.758429     9A     -0.610284  
      10A     -0.555463    11A     -0.541837    12A     -0.539476  
      13A     -0.485284    14A     -0.469585    15A     -0.432866  
      16A     -0.430887    17A     -0.414901  

    Virtual:                                                              

      18A      0.601245    19A      0.617376    20A      0.652115  
      21A      0.683790    22A      0.687219    23A      0.736817  
      24A      0.750702    25A      0.765563    26A      0.767674  
      27A      0.768333    28A      0.797831    29A      0.800180  
      30A      0.831519  

    Final Occupation by Irrep:
              A 
    DOCC [    17 ]
    NA   [    17 ]
    NB   [    17 ]

  @RHF Final Energy:  -155.46664624376635

   => Energetics <=

    Nuclear Repulsion Energy =            130.2420222661088758
    One-Electron Energy =                -467.0644651873183193
    Two-Electron Energy =                 181.3557966774431236
    Total Energy =                       -155.4666462437663483

Computation Completed


Properties will be evaluated at   0.000000,   0.000000,   0.000000 [a0]

Properties computed using the SCF density matrix


 Multipole Moments:

 ------------------------------------------------------------------------------------
     Multipole            Electronic (a.u.)      Nuclear  (a.u.)        Total (a.u.)
 ------------------------------------------------------------------------------------

 L = 1.  Multiply by 2.5417464519 to convert [e a0] to [Debye]
 Dipole X            :          0.0000401           -0.0000310            0.0000091
 Dipole Y            :          0.0000487           -0.0000508           -0.0000021
 Dipole Z            :         -0.0000048           -0.0000047           -0.0000096
 Magnitude           :                                                    0.0000133

 ------------------------------------------------------------------------------------

*** tstop() called on PC001.IRVING.UPEI.CA at Mon Mar 30 15:16:57 2026
Module time:
	user time   =       2.32 seconds =       0.04 minutes
	system time =       0.05 seconds =       0.00 minutes
	total time  =          0 seconds =       0.00 minutes
Total time:
	user time   =       6.92 seconds =       0.12 minutes
	system time =       0.28 seconds =       0.00 minutes
	total time  =          2 seconds =       0.03 minutes

*** tstart() called on PC001.IRVING.UPEI.CA
*** at Mon Mar 30 15:16:57 2026


         ------------------------------------------------------------
                                   SCF GRAD                          
                          Rob Parrish, Justin Turney,                
                       Andy Simmonett, and Alex Sokolov              
         ------------------------------------------------------------

  ==> Geometry <==

    Molecular point group: c1
    Full point group: C1

    Geometry (in Angstrom), charge = 0, multiplicity = 1:

       Center              X                  Y                   Z               Mass       
    ------------   -----------------  -----------------  -----------------  -----------------
         C            0.618340655443    -0.356875397042    -1.836116778233    12.000000000000
         C            0.618340655443    -0.356875397042    -0.294992276134    12.000000000000
         H            0.618340655443     0.658720161599    -2.220805697384     1.007825032230
         H            1.498714815099    -0.865075411723    -2.218355120407     1.007825032230
         H           -0.261119091606    -0.864809503892    -2.220785732599     1.007825032230
         C           -0.618287625178     0.356935206706     0.295027207492    12.000000000000
         H            0.645606529573    -1.383784799114     0.065006626981     1.007825032230
         H            1.521195507792     0.133161269352     0.065004861575     1.007825032230
         C           -0.618390904326     0.356820136988     1.836082272220    12.000000000000
         H           -0.645486520212     1.383900677252    -0.064816925276     1.007825032230
         H           -1.521185035820    -0.133021711712    -0.064983942794     1.007825032230
         H           -1.498799470407     0.864960164258     2.218345097398     1.007825032230
         H           -0.618367196608    -0.658842387799     2.220597299687     1.007825032230
         H            0.261066689310     0.864737370351     2.220788468315     1.007825032230

  Nuclear repulsion =  130.242022266108904

  ==> Basis Set <==

  -AO BASIS SET INFORMATION:
    Name                   = STO-3G
    Blend                  = STO-3G
    Total number of shells = 22
    Number of primitives   = 66
    Number of AO           = 30
    Number of SO           = 30
    Maximum AM             = 1
    Spherical Harmonics    = TRUE

  -Contraction Scheme:
    Atom   Type   All Primitives // Shells:
   ------ ------ --------------------------
       1     C     6s 3p // 2s 1p 
       2     C     6s 3p // 2s 1p 
       3     H     3s // 1s 
       4     H     3s // 1s 
       5     H     3s // 1s 
       6     C     6s 3p // 2s 1p 
       7     H     3s // 1s 
       8     H     3s // 1s 
       9     C     6s 3p // 2s 1p 
      10     H     3s // 1s 
      11     H     3s // 1s 
      12     H     3s // 1s 
      13     H     3s // 1s 
      14     H     3s // 1s 

  ==> DirectJKGrad: Integral-Direct SCF Gradients <==

    Gradient:                    1
    J tasked:                  Yes
    K tasked:                  Yes
    wK tasked:                  No
    Integrals threads:           4
    Schwarz Cutoff:          1E-08


  -Nuclear Gradient:
     Atom            X                  Y                   Z
    ------   -----------------  -----------------  -----------------
       1       -1.118930857147     0.645816134198     5.761607052443
       2       -3.673779018608     2.120486835535    -0.810325226464
       3       -0.152240772271    -1.710411483716     1.247568505667
       4       -1.604567730912     0.926237072249     1.109964626083
       5        1.404994897959     0.987265607701     1.247558452713
       6        3.673402401894    -2.120779465071     0.811018364972
       7       -0.389073913472     2.143150265641    -0.652292324320
       8       -2.050407451493    -0.735092107649    -0.652309668499
       9        1.119357486080    -0.645582805811    -5.762229268054
      10        0.388890214538    -2.143276766038     0.652091588564
      11        2.050439895722     0.734916996542     0.652390941952
      12        1.604625332517    -0.926094932452    -1.110001434769
      13        0.152254201551     1.710582642391    -1.247366710982
      14       -1.404964686358    -0.987217993520    -1.247674899306


  -Core Hamiltonian Gradient:
     Atom            X                  Y                   Z
    ------   -----------------  -----------------  -----------------
       1        2.346952400963    -1.354549444806   -10.738034930441
       2        6.508532718416    -3.756742012996     0.902076960062
       3        0.294385553360     4.992269970911    -3.063330176307
       4        4.473319483947    -2.582231095631    -2.760730903996
       5       -4.175855332195    -2.751721256620    -3.063234375525
       6       -6.507302028924     3.756855903181    -0.903338830222
       7        0.815506736823    -6.007978442379     1.937102207493
       8        5.610278401556     2.299021694930     1.937112812301
       9       -2.348205773294     1.354497897846    10.738968405226
      10       -0.814995222157     6.008436097386    -1.936064759484
      11       -5.610576056804    -2.298574968941    -1.936956631092
      12       -4.473590646899     2.581919819894     2.760848429166
      13       -0.294347225528    -4.992859643609     3.062315939349
      14        4.175896990737     2.751655480833     3.063265853471


  -Overlap Gradient:
     Atom            X                  Y                   Z
    ------   -----------------  -----------------  -----------------
       1       -0.000328051048     0.000186766682    -0.046324388813
       2        0.038630443628    -0.022294379011     0.027825992482
       3        0.000139354719    -0.162375047599     0.062915080832
       4       -0.140875360199     0.081321058249     0.062958793225
       5        0.140679229459     0.081088488318     0.062910473177
       6       -0.038645165069     0.022313203010    -0.027805228927
       7       -0.005381275293     0.163174946416    -0.058192577664
       8       -0.143986232991    -0.076959272401    -0.058191835814
       9        0.000342855146    -0.000205247723     0.046308184841
      10        0.005369700741    -0.163185658095     0.058155714670
      11        0.143995495897     0.076946180559     0.058182256015
      12        0.140884322708    -0.081312991959    -0.062960920437
      13       -0.000144153412     0.162388310494    -0.062874842485
      14       -0.140681164288    -0.081086356938    -0.062906701101


  -Coulomb Gradient:
     Atom            X                  Y                   Z
    ------   -----------------  -----------------  -----------------
       1       -1.229158651380     0.709386923807     4.942431647534
       2       -2.806467365638     1.619930968486    -0.069496544694
       3       -0.142162916797    -3.424876923126     1.871400527470
       4       -2.992742212483     1.727568044184     1.705853976188
       5        2.894699992840     1.836000582677     1.871312929191
       6        2.805613486175    -1.619743245420     0.070124628903
       7       -0.431405119024     4.007824213120    -1.335541956871
       8       -3.686182648586    -1.631149339583    -1.335535980615
       9        1.229993978842    -0.709582679613    -4.942801962923
      10        0.431068271190    -4.008163677483     1.334687668591
      11        3.686450505633     1.630865441428     1.335302604531
      12        2.992952909418    -1.727385978203    -1.705935687006
      13        0.142108231023     3.425303855897    -1.870566993787
      14       -2.894768461213    -1.835978186172    -1.871234856512


  -Exchange Gradient:
     Atom            X                  Y                   Z
    ------   -----------------  -----------------  -----------------
       1        0.001455686652    -0.000834580134     0.080300194397
       2       -0.066926520292     0.038622589152    -0.050068288040
       3       -0.000120890947     0.305392435317    -0.118562986321
       4        0.264864967185    -0.152894508144    -0.118047342021
       5       -0.264517456181    -0.152632429141    -0.118554060423
       6        0.066964408313    -0.038664451131     0.050021389685
       7        0.010348041685    -0.306166601828     0.108938344509
       8        0.270288466633     0.144182670827     0.108937258338
       9       -0.001495352850     0.000876588795    -0.080263649612
      10       -0.010325098288     0.306191370544    -0.108868311692
      11       -0.270309095331    -0.144160600779    -0.108917980895
      12       -0.264879107662     0.152878236500     0.118053570324
      13        0.000129370913    -0.305421148385     0.118485910317
      14        0.264522580171     0.152630428406     0.118545951433


  -Total Gradient:
     Atom            X                  Y                   Z
    ------   -----------------  -----------------  -----------------
       1       -0.000009471960     0.000005799748    -0.000020424880
       2       -0.000009742494     0.000004001166     0.000012893345
       3        0.000000328063    -0.000001048213    -0.000009048658
       4       -0.000000852462     0.000000570907    -0.000000850522
       5        0.000001331883     0.000000992936    -0.000006580867
       6        0.000033102389    -0.000018055430     0.000020324410
       7       -0.000005529282     0.000004380970     0.000013693148
       8       -0.000009464881     0.000003646124     0.000012585711
       9       -0.000006806076     0.000003753494    -0.000018290522
      10        0.000007866025     0.000001366313     0.000001900648
      11        0.000000745116    -0.000006951191     0.000001190512
      12       -0.000007189918     0.000004153781     0.000003957279
      13        0.000000424548    -0.000005983214    -0.000006697588
      14        0.000005259049     0.000003372609    -0.000004652016


*** tstop() called on PC001.IRVING.UPEI.CA at Mon Mar 30 15:16:57 2026
Module time:
	user time   =       0.35 seconds =       0.01 minutes
	system time =       0.01 seconds =       0.00 minutes
	total time  =          0 seconds =       0.00 minutes
Total time:
	user time   =       7.28 seconds =       0.12 minutes
	system time =       0.29 seconds =       0.00 minutes
	total time  =          2 seconds =       0.03 minutes

    			-----------------------------------------

    			 OPTKING 3.0: for geometry optimizations 

    			     By R.A. King, Bethel University     

    			        with contributions from          

    			    A.V. Copan, J. Cayton, A. Heide      

    			-----------------------------------------

    
	                            ===> Fragment 1 <== 

	 Z (Atomic Numbers)          Masses                          Geom                  
	       6.000000            12.000000          1.16849449 -0.67439676 -3.46975785   
	       6.000000            12.000000          1.16849449 -0.67439676 -0.55745461   
	       1.000000             1.007825          1.16849449  1.24480070 -4.19671455   
	       1.000000             1.007825          2.83216054 -1.63475561 -4.19208363   
	       1.000000             1.007825         -0.49344357 -1.63425311 -4.19667682   
	       6.000000            12.000000         -1.16839428  0.67450979  0.55752062   
	       1.000000             1.007825          1.22001953 -2.61497429  0.12284472   
	       1.000000             1.007825          2.87464289  0.25163833  0.12284139   
	       6.000000            12.000000         -1.16858945  0.67429233  3.46969264   
	       1.000000             1.007825         -1.21979274  2.61519326 -0.12248624   
	       1.000000             1.007825         -2.87462310 -0.25137460 -0.12280185   
	       1.000000             1.007825         -2.83232052  1.63453782  4.19206469   
	       1.000000             1.007825         -1.16854465 -1.24503167  4.19632073   
	       1.000000             1.007825          0.49334454  1.63411680  4.19668199   

	 - Coordinate -           - BOHR/RAD -       - ANG/DEG -
	 R(1,2)           =         2.912303           1.541125
	 R(1,3)           =         2.052263           1.086011
	 R(1,4)           =         2.052274           1.086017
	 R(1,5)           =         2.052261           1.086010
	 R(2,6)           =         2.919549           1.544959
	 R(2,7)           =         2.057013           1.088524
	 R(2,8)           =         2.057009           1.088522
	 R(6,9)           =         2.912172           1.541055
	 R(6,10)          =         2.057013           1.088525
	 R(6,11)          =         2.057017           1.088526
	 R(9,12)          =         2.052290           1.086025
	 R(9,13)          =         2.052265           1.086012
	 R(9,14)          =         2.052267           1.086013
	 B(1,2,6)         =         1.962647         112.451410
	 B(1,2,7)         =         1.907865         109.312599
	 B(1,2,8)         =         1.907864         109.312541
	 B(2,1,3)         =         1.932878         110.745766
	 B(2,1,4)         =         1.930464         110.607466
	 B(2,1,5)         =         1.932859         110.744669
	 B(2,6,9)         =         1.962668         112.452596
	 B(2,6,10)        =         1.906728         109.247455
	 B(2,6,11)        =         1.906740         109.248134
	 B(3,1,4)         =         1.889077         108.236153
	 B(3,1,5)         =         1.888004         108.174649
	 B(4,1,5)         =         1.889081         108.236356
	 B(6,2,7)         =         1.906697         109.245706
	 B(6,2,8)         =         1.906677         109.244553
	 B(6,9,12)        =         1.930506         110.609866
	 B(6,9,13)        =         1.932781         110.740213
	 B(6,9,14)        =         1.932799         110.741234
	 B(7,2,8)         =         1.869781         107.130567
	 B(9,6,10)        =         1.907787         109.308141
	 B(9,6,11)        =         1.907782         109.307832
	 B(10,6,11)       =         1.869829         107.133312
	 B(12,9,13)       =         1.889120         108.238599
	 B(12,9,14)       =         1.889116         108.238386
	 B(13,9,14)       =         1.888046         108.177054
	 D(1,2,6,9)       =         3.141486         179.993914
	 D(1,2,6,10)      =        -1.020252         -58.456135
	 D(1,2,6,11)      =         1.020038          58.443879
	 D(2,6,9,12)      =         3.141641         180.002761
	 D(2,6,9,13)      =        -1.047204         -60.000343
	 D(2,6,9,14)      =         1.047293          60.005465
	 D(3,1,2,6)       =         1.047293          60.005458
	 D(3,1,2,7)       =        -3.115047        -178.479075
	 D(3,1,2,8)       =        -1.073526         -61.508505
	 D(4,1,2,6)       =         3.141616         180.001346
	 D(4,1,2,7)       =        -1.020724         -58.483187
	 D(4,1,2,8)       =         1.020797          58.487383
	 D(5,1,2,6)       =        -1.047254         -60.003228
	 D(5,1,2,7)       =         1.073591          61.512239
	 D(5,1,2,8)       =         3.115113         178.482809
	 D(7,2,6,9)       =         1.019976          58.440316
	 D(7,2,6,10)      =         3.141423         179.990267
	 D(7,2,6,11)      =        -1.101472         -63.109719
	 D(8,2,6,9)       =        -1.020204         -58.453367
	 D(8,2,6,10)      =         1.101243          63.096584
	 D(8,2,6,11)      =         3.141533         179.996598
	 D(10,6,9,12)     =         1.020798          58.487402
	 D(10,6,9,13)     =         3.115139         178.484299
	 D(10,6,9,14)     =        -1.073550         -61.509894
	 D(11,6,9,12)     =        -1.020690         -58.481234
	 D(11,6,9,13)     =         1.073651          61.515662
	 D(11,6,9,14)     =        -3.115038        -178.478531


	        --- Internal Coordinate Step in ANG or DEG, aJ/ANG or AJ/DEG ---
	-------------------------------------------------------------------------------
	           Coordinate      Previous         Force          Change          New 
	           ----------      --------        ------          ------        ------
	               R(1,2)       1.54112       -0.00030       -0.00006       1.54107
	               R(1,3)       1.08601       -0.00002       -0.00000       1.08601
	               R(1,4)       1.08602        0.00001        0.00000       1.08602
	               R(1,5)       1.08601       -0.00001       -0.00000       1.08601
	               R(2,6)       1.54496        0.00030        0.00005       1.54501
	               R(2,7)       1.08852       -0.00000       -0.00000       1.08852
	               R(2,8)       1.08852        0.00002        0.00000       1.08853
	               R(6,9)       1.54106        0.00021        0.00003       1.54109
	              R(6,10)       1.08852       -0.00000       -0.00000       1.08852
	              R(6,11)       1.08853       -0.00002       -0.00000       1.08852
	              R(9,12)       1.08603       -0.00008       -0.00001       1.08602
	              R(9,13)       1.08601       -0.00003       -0.00000       1.08601
	              R(9,14)       1.08601       -0.00003       -0.00000       1.08601
	             B(1,2,6)     112.45141       -0.00000       -0.00008     112.45133
	             B(1,2,7)     109.31260       -0.00000       -0.00474     109.30786
	             B(1,2,8)     109.31254       -0.00000       -0.00464     109.30790
	             B(2,1,3)     110.74577       -0.00000       -0.00311     110.74266
	             B(2,1,4)     110.60747        0.00000        0.00109     110.60855
	             B(2,1,5)     110.74467       -0.00000       -0.00197     110.74270
	             B(2,6,9)     112.45260       -0.00000       -0.00135     112.45124
	            B(2,6,10)     109.24746        0.00000        0.00172     109.24918
	            B(2,6,11)     109.24813        0.00000        0.00146     109.24959
	             B(3,1,4)     108.23615        0.00000        0.00149     108.23765
	             B(3,1,5)     108.17465        0.00000        0.00134     108.17599
	             B(4,1,5)     108.23636        0.00000        0.00133     108.23769
	             B(6,2,7)     109.24571        0.00000        0.00417     109.24988
	             B(6,2,8)     109.24455        0.00000        0.00513     109.24968
	            B(6,9,12)     110.60987       -0.00000       -0.00166     110.60821
	            B(6,9,13)     110.74021        0.00000        0.00326     110.74347
	            B(6,9,14)     110.74123        0.00000        0.00227     110.74350
	             B(7,2,8)     107.13057        0.00000        0.00018     107.13075
	            B(9,6,10)     109.30814        0.00000        0.00040     109.30854
	            B(9,6,11)     109.30783        0.00000        0.00080     109.30863
	           B(10,6,11)     107.13331       -0.00000       -0.00312     107.13019
	           B(12,9,13)     108.23860       -0.00000       -0.00144     108.23715
	           B(12,9,14)     108.23839       -0.00000       -0.00126     108.23712
	           B(13,9,14)     108.17705       -0.00000       -0.00133     108.17572
	           D(1,2,6,9)     179.99391        0.00000        0.00942     180.00333
	          D(1,2,6,10)     -58.45614        0.00000        0.01023     -58.44590
	          D(1,2,6,11)      58.44388       -0.00000        0.00828      58.45216
	          D(2,6,9,12)     180.00276       -0.00000        0.00276     180.00552
	          D(2,6,9,13)     -60.00034       -0.00000        0.00200     -59.99835
	          D(2,6,9,14)      60.00546        0.00000        0.00395      60.00941
	           D(3,1,2,6)      60.00546       -0.00000        0.00295      60.00841
	           D(3,1,2,7)    -178.47907        0.00000        0.00488    -178.47420
	           D(3,1,2,8)     -61.50851       -0.00000       -0.00026     -61.50877
	           D(4,1,2,6)     180.00135        0.00000        0.00350     180.00485
	           D(4,1,2,7)     -58.48319        0.00000        0.00543     -58.47775
	           D(4,1,2,8)      58.48738       -0.00000        0.00029      58.48768
	           D(5,1,2,6)     -60.00323        0.00000        0.00460     -59.99863
	           D(5,1,2,7)      61.51224        0.00000        0.00653      61.51877
	           D(5,1,2,8)     178.48281       -0.00000        0.00139     178.48420
	           D(7,2,6,9)      58.44032        0.00000        0.01257      58.45288
	          D(7,2,6,10)     179.99027        0.00000        0.01338     180.00365
	          D(7,2,6,11)     -63.10972        0.00000        0.01143     -63.09828
	           D(8,2,6,9)     -58.45337       -0.00000        0.00706     -58.44630
	          D(8,2,6,10)      63.09658       -0.00000        0.00788      63.10446
	          D(8,2,6,11)     179.99660       -0.00000        0.00593     180.00253
	         D(10,6,9,12)      58.48740       -0.00000        0.00120      58.48860
	         D(10,6,9,13)     178.48430       -0.00000        0.00043     178.48473
	         D(10,6,9,14)     -61.50989       -0.00000        0.00239     -61.50751
	         D(11,6,9,12)     -58.48123        0.00000        0.00427     -58.47696
	         D(11,6,9,13)      61.51566        0.00000        0.00350      61.51917
	         D(11,6,9,14)    -178.47853        0.00000        0.00546    -178.47307
	-------------------------------------------------------------------------------

	                                 ==> Convergence Check <==                                  
    
	Measures of convergence in internal coordinates in au.
    
	Criteria marked as inactive (o), active & met (*), and active & unmet ( ).

	----------------------------------------------------------------------------------------------
	   Step    Total Energy     Delta E     Max Force     RMS Force      Max Disp      RMS Disp   
	----------------------------------------------------------------------------------------------
	  Convergence Criteria     1.00e-06 *    3.00e-04 *             o    1.20e-03 *             o
	----------------------------------------------------------------------------------------------
	     2    -155.46664624   -8.55e-08 *    3.69e-05 *    8.82e-06 o    2.34e-04 *    7.99e-05 o  ~
	----------------------------------------------------------------------------------------------

Next Geometry in Ang 
	Fragment 1 (Ang)

	    C   0.6183852641  -0.3568437417  -1.8360904233
	    C   0.6183226778  -0.3569398439  -0.2950211624
	    H   0.6184804374   0.6587948310  -2.2206602235
	    H   1.4987250989  -0.8650944546  -2.2183445247
	    H  -0.2611245754  -0.8646661556  -2.2207917819
	    C  -0.6183514109   0.3568908381   0.2950099308
	    H   0.6455817110  -1.3839012634   0.0648298387
	    H   1.5212314983   0.1330147078   0.0649609518
	    C  -0.6183704768   0.3568652345   1.8360981648
	    H  -0.6456348547   1.3838311417  -0.0648995447
	    H  -1.5212576664  -0.1330923219  -0.0649370819
	    H  -1.4988024827   0.8649543158   2.2183466897
	    H  -0.6182539018  -0.6587503991   2.2207289601
	    H   0.2610383453   0.8648874895   2.2207655672


    Final optimized geometry and variables:
    Molecular point group: c1
    Full point group: C1

    Geometry (in Angstrom), charge = 0, multiplicity = 1:

    C       
    C             1    1.541125
    H             1    1.086011      2  110.745766
    H             1    1.086017      2  110.607466      3  119.995888
    H             1    1.086010      2  110.744669      3 -120.008686
    C             2    1.544959      1  112.451410      3   60.005458
    H             2    1.088524      1  109.312599      6  121.515467
    H             2    1.088522      1  109.312541      6 -121.513964
    C             6    1.541055      2  112.452596      1    dihedral
    H             6    1.088525      2  109.247455      9  121.549951
    H             6    1.088526      2  109.248134      9 -121.550034
    H             9    1.086025      6  110.609866     10   58.487402
    H             9    1.086012      6  110.740213     12  119.996897
    H             9    1.086013      6  110.741234     12 -119.997296

    dihedral  =  179.9939137441

Molecule: Setting geometry variable dihedral to 59.993914

Scratch directory: /tmp/
gradient() will perform analytic gradient computation.
   => Libint2 <=

    Primary   basis highest AM E, G, H:  7, 6, 3
    Auxiliary basis highest AM E, G, H:  7, 7, 4
    Onebody   basis highest AM E, G, H:  -, -, -
    Solid Harmonics ordering:            Gaussian

*** tstart() called on PC001.IRVING.UPEI.CA
*** at Mon Mar 30 15:17:04 2026

   => Loading Basis Set <=

    Name: STO-3G
    Role: ORBITAL
    Keyword: BASIS
    atoms 1-2, 6, 9       entry C          line    61 file /opt/anaconda3/envs/p4dev/share/psi4/basis/sto-3g.gbs 
    atoms 3-5, 7-8, 10-14 entry H          line    19 file /opt/anaconda3/envs/p4dev/share/psi4/basis/sto-3g.gbs 


         ---------------------------------------------------------
                                   SCF
               by Justin Turney, Rob Parrish, Andy Simmonett
                          and Daniel G. A. Smith
                              RHF Reference
                        4 Threads,    953 MiB Core
         ---------------------------------------------------------

  ==> Geometry <==

    Molecular point group: c1
    Full point group: C1

    Geometry (in Angstrom), charge = 0, multiplicity = 1:

       Center              X                  Y                   Z               Mass       
    ------------   -----------------  -----------------  -----------------  -----------------
         C            0.960420071466    -0.186205032506    -1.325627256310    12.000000000000
         C            0.960420071466    -0.186205032506     0.215497245790    12.000000000000
         H            0.960420071466     0.829390526135    -1.710316175461     1.007825032230
         H            1.840794231122    -0.694405047187    -1.707865598484     1.007825032230
         H            0.080960324417    -0.694139139356    -1.710296210676     1.007825032230
         C           -0.276208209155     0.527605571241     0.805516729415    12.000000000000
         H            0.987685945596    -1.213114434578     0.575496148904     1.007825032230
         H            1.863274923815     0.303831633888     0.575494383498     1.007825032230
         C           -1.599458229752    -0.132654739217     0.372023428595    12.000000000000
         H           -0.209799648852     0.521242623431     1.891995018883     1.007825032230
         H           -0.273598088772     1.569452514968     0.490179326782     1.007825032230
         H           -2.447400420705     0.391743838910     0.802663150540     1.007825032230
         H           -1.702110751517    -0.114833406177    -0.708979360962     1.007825032230
         H           -1.638102141321    -1.167558161217     0.698988239390     1.007825032230

  Running in c1 symmetry.

  Rotational constants: A =      0.42518  B =      0.16468  C =      0.13734 [cm^-1]
  Rotational constants: A =  12746.44725  B =   4936.84994  C =   4117.21466 [MHz]
  Nuclear repulsion =  132.731364445021882

  Charge       = 0
  Multiplicity = 1
  Electrons    = 34
  Nalpha       = 17
  Nbeta        = 17

  ==> Algorithm <==

  SCF Algorithm Type is DIRECT.
  DIIS enabled.
  MOM disabled.
  Fractional occupation disabled.
  Guess Type is SAD.
  Energy threshold   = 1.00e-08
  Density threshold  = 1.00e-08
  Integral threshold = 1.00e-08

  ==> Primary Basis <==

  -AO BASIS SET INFORMATION:
    Name                   = STO-3G
    Blend                  = STO-3G
    Total number of shells = 22
    Number of primitives   = 66
    Number of AO           = 30
    Number of SO           = 30
    Maximum AM             = 1
    Spherical Harmonics    = TRUE

  -Contraction Scheme:
    Atom   Type   All Primitives // Shells:
   ------ ------ --------------------------
       1     C     6s 3p // 2s 1p 
       2     C     6s 3p // 2s 1p 
       3     H     3s // 1s 
       4     H     3s // 1s 
       5     H     3s // 1s 
       6     C     6s 3p // 2s 1p 
       7     H     3s // 1s 
       8     H     3s // 1s 
       9     C     6s 3p // 2s 1p 
      10     H     3s // 1s 
      11     H     3s // 1s 
      12     H     3s // 1s 
      13     H     3s // 1s 
      14     H     3s // 1s 

   => Loading Basis Set <=

    Name: (STO-3G AUX)
    Role: JKFIT
    Keyword: DF_BASIS_SCF
    atoms 1-2, 6, 9       entry C          line   198 file /opt/anaconda3/envs/p4dev/share/psi4/basis/def2-universal-jkfit.gbs 
    atoms 3-5, 7-8, 10-14 entry H          line    18 file /opt/anaconda3/envs/p4dev/share/psi4/basis/def2-universal-jkfit.gbs 

  Starting with a DF guess...

  ==> Integral Setup <==

  DFHelper Memory: AOs need 0.005 GiB; user supplied 0.698 GiB. 
  SCF_SUBTYPE=INCORE selected. In-core MEM_DF algorithm will be used.
  Using in-core AOs.

  ==> MemDFJK: Density-Fitted J/K Matrices <==

    J tasked:                   Yes
    K tasked:                   Yes
    wK tasked:                   No
    OpenMP threads:               4
    Memory [MiB]:               715
    Algorithm:                 Core
    Schwarz Cutoff:           1E-08
    Mask sparsity (%):       0.6667
    Fitting Condition:        1E-10

   => Auxiliary Basis Set <=

  -AO BASIS SET INFORMATION:
    Name                   = (STO-3G AUX)
    Blend                  = DEF2-UNIVERSAL-JKFIT
    Total number of shells = 160
    Number of primitives   = 212
    Number of AO           = 556
    Number of SO           = 480
    Maximum AM             = 4
    Spherical Harmonics    = TRUE

  -Contraction Scheme:
    Atom   Type   All Primitives // Shells:
   ------ ------ --------------------------
       1     C     14s 10p 6d 2f 1g // 10s 8p 5d 1f 1g 
       2     C     14s 10p 6d 2f 1g // 10s 8p 5d 1f 1g 
       3     H     4s 2p 2d // 2s 2p 2d 
       4     H     4s 2p 2d // 2s 2p 2d 
       5     H     4s 2p 2d // 2s 2p 2d 
       6     C     14s 10p 6d 2f 1g // 10s 8p 5d 1f 1g 
       7     H     4s 2p 2d // 2s 2p 2d 
       8     H     4s 2p 2d // 2s 2p 2d 
       9     C     14s 10p 6d 2f 1g // 10s 8p 5d 1f 1g 
      10     H     4s 2p 2d // 2s 2p 2d 
      11     H     4s 2p 2d // 2s 2p 2d 
      12     H     4s 2p 2d // 2s 2p 2d 
      13     H     4s 2p 2d // 2s 2p 2d 
      14     H     4s 2p 2d // 2s 2p 2d 

  Minimum eigenvalue in the overlap matrix is 1.9942219304E-01.
  Reciprocal condition number of the overlap matrix is 7.6494183429E-02.
    Using symmetric orthogonalization.

  ==> Pre-Iterations <==

  SCF Guess: Superposition of Atomic Densities via on-the-fly atomic UHF (no occupation information).

   -------------------------
    Irrep   Nso     Nmo    
   -------------------------
     A         30      30 
   -------------------------
    Total      30      30
   -------------------------

  ==> Iterations <==

                           Total Energy        Delta E     RMS |[F,P]|

   @DF-RHF iter SAD:  -140.11248144478046   -1.40112e+02   0.00000e+00 
   @DF-RHF iter   1:  -153.56296900655266   -1.34505e+01   5.24783e-02 DIIS/ADIIS
   @DF-RHF iter   2:  -155.39901359543654   -1.83604e+00   1.06720e-02 DIIS/ADIIS
   @DF-RHF iter   3:  -155.46459054455485   -6.55769e-02   6.15486e-04 DIIS/ADIIS
   @DF-RHF iter   4:  -155.46492940281249   -3.38858e-04   1.02461e-04 DIIS/ADIIS
   @DF-RHF iter   5:  -155.46493862613735   -9.22332e-06   2.10539e-05 DIIS
[...]
        Angle 2-7-11:   28.534
        Angle 2-7-12:   68.201
        Angle 2-7-13:   63.914
        Angle 2-7-14:   90.556
        Angle 3-7-4:   35.016
        Angle 3-7-5:   35.018
        Angle 3-7-6:   62.547
        Angle 3-7-8:   55.383
        Angle 3-7-9:   74.256
        Angle 3-7-10:   84.572
        Angle 3-7-11:   50.113
        Angle 3-7-12:   78.717
        Angle 3-7-13:   61.072
        Angle 3-7-14:   94.209
        Angle 4-7-5:   41.071
        Angle 4-7-6:   97.560
        Angle 4-7-8:   67.957
        Angle 4-7-9:  104.007
        Angle 4-7-10:  118.393
        Angle 4-7-11:   84.866
        Angle 4-7-12:  110.330
        Angle 4-7-13:   86.435
        Angle 4-7-14:  118.138
        Angle 5-7-6:   75.973
        Angle 5-7-8:   90.346
        Angle 5-7-9:   66.774
        Angle 5-7-10:  101.581
        Angle 5-7-11:   69.269
        Angle 5-7-12:   74.522
        Angle 5-7-13:   47.568
        Angle 5-7-14:   77.246
        Angle 6-7-8:   65.757
        Angle 6-7-9:   33.192
        Angle 6-7-10:   25.617
        Angle 6-7-11:   13.895
        Angle 6-7-12:   29.514
        Angle 6-7-13:   42.971
        Angle 6-7-14:   53.539
        Angle 8-7-9:   98.055
        Angle 8-7-10:   66.018
        Angle 8-7-11:   55.086
        Angle 8-7-12:   95.271
        Angle 8-7-13:   99.324
        Angle 8-7-14:  119.286
        Angle 9-7-10:   47.517
        Angle 9-7-11:   43.030
        Angle 9-7-12:    8.331
        Angle 9-7-13:   19.455
        Angle 9-7-14:   22.839
        Angle 10-7-11:   34.918
        Angle 10-7-12:   40.037
        Angle 10-7-13:   63.667
        Angle 10-7-14:   59.253
        Angle 11-7-12:   41.346
        Angle 11-7-13:   47.142
        Angle 11-7-14:   65.092
        Angle 12-7-13:   27.614
        Angle 12-7-14:   24.036
        Angle 13-7-14:   33.393
        Angle 1-8-2:   42.671
        Angle 1-8-3:   25.307
        Angle 1-8-4:   26.177
        Angle 1-8-5:   13.230
        Angle 1-8-6:   73.870
        Angle 1-8-7:   66.288
        Angle 1-8-9:   63.647
        Angle 1-8-10:  100.222
        Angle 1-8-11:   73.310
        Angle 1-8-12:   72.152
        Angle 1-8-13:   48.209
        Angle 1-8-14:   67.184
        Angle 2-8-3:   59.233
        Angle 2-8-4:   61.963
        Angle 2-8-5:   29.574
        Angle 2-8-6:   42.964
        Angle 2-8-7:   36.477
        Angle 2-8-9:   27.759
        Angle 2-8-10:   63.583
        Angle 2-8-11:   59.324
        Angle 2-8-12:   38.535
        Angle 2-8-13:   20.192
        Angle 2-8-14:   24.871
        Angle 3-8-4:   41.332
        Angle 3-8-5:   35.050
        Angle 3-8-6:   73.763
        Angle 3-8-7:   89.796
        Angle 3-8-9:   69.951
        Angle 3-8-10:   99.881
        Angle 3-8-11:   62.066
        Angle 3-8-12:   74.583
        Angle 3-8-13:   54.723
        Angle 3-8-14:   79.998
        Angle 4-8-5:   34.971
        Angle 4-8-6:   99.240
        Angle 4-8-7:   70.744
        Angle 4-8-9:   87.270
        Angle 4-8-10:  124.520
        Angle 4-8-11:   98.954
        Angle 4-8-12:   96.826
        Angle 4-8-13:   72.802
        Angle 4-8-14:   86.430
        Angle 5-8-6:   64.428
        Angle 5-8-7:   54.801
        Angle 5-8-9:   52.442
        Angle 5-8-10:   89.639
        Angle 5-8-11:   69.131
        Angle 5-8-12:   61.856
        Angle 5-8-13:   37.857
        Angle 5-8-14:   54.291
        Angle 6-8-7:   66.427
        Angle 6-8-9:   15.660
        Angle 6-8-10:   26.907
        Angle 6-8-11:   25.590
        Angle 6-8-12:    5.585
        Angle 6-8-13:   26.674
        Angle 6-8-14:   29.598
        Angle 7-8-9:   52.277
        Angle 7-8-10:   72.300
        Angle 7-8-11:   89.996
        Angle 7-8-12:   60.842
        Angle 7-8-13:   54.259
        Angle 7-8-14:   36.841
        Angle 9-8-10:   37.250
        Angle 9-8-11:   37.786
        Angle 9-8-12:   10.802
        Angle 9-8-13:   15.836
        Angle 9-8-14:   16.635
        Angle 10-8-11:   41.682
        Angle 10-8-12:   28.070
        Angle 10-8-13:   52.084
        Angle 10-8-14:   41.211
        Angle 11-8-12:   30.778
        Angle 11-8-13:   39.166
        Angle 11-8-14:   53.994
        Angle 12-8-13:   24.071
        Angle 12-8-14:   24.013
        Angle 13-8-14:   26.521
        Angle 1-9-2:   28.534
        Angle 1-9-3:   17.565
        Angle 1-9-4:    7.096
        Angle 1-9-5:   19.800
        Angle 1-9-6:   53.341
        Angle 1-9-7:   41.627
        Angle 1-9-8:   37.167
        Angle 1-9-10:   79.187
        Angle 1-9-11:   59.296
        Angle 1-9-12:  151.593
        Angle 1-9-13:   66.049
        Angle 1-9-14:   99.839
        Angle 2-9-3:   37.663
        Angle 2-9-4:   25.907
        Angle 2-9-5:   46.137
        Angle 2-9-6:   33.122
        Angle 2-9-7:   22.898
        Angle 2-9-8:   11.294
        Angle 2-9-10:   53.071
        Angle 2-9-11:   53.323
        Angle 2-9-12:  143.261
        Angle 2-9-13:   94.580
        Angle 2-9-14:   90.876
        Angle 3-9-4:   24.592
        Angle 3-9-5:   29.621
        Angle 3-9-6:   50.314
        Angle 3-9-7:   56.330
        Angle 3-9-8:   41.950
        Angle 3-9-10:   78.764
        Angle 3-9-11:   46.678
        Angle 3-9-12:  134.252
        Angle 3-9-13:   61.919
        Angle 3-9-14:  117.393
        Angle 4-9-5:   20.237
        Angle 4-9-6:   54.549
        Angle 4-9-7:   35.521
        Angle 4-9-8:   35.963
        Angle 4-9-10:   78.491
        Angle 4-9-11:   64.066
        Angle 4-9-12:  158.095
        Angle 4-9-13:   69.424
        Angle 4-9-14:   92.880
        Angle 5-9-6:   73.139
        Angle 5-9-7:   51.798
        Angle 5-9-8:   56.054
        Angle 5-9-10:   98.520
        Angle 5-9-11:   76.098
        Angle 5-9-12:  154.282
        Angle 5-9-13:   50.175
        Angle 5-9-14:   93.411
        Angle 6-9-7:   50.265
        Angle 6-9-8:   22.161
        Angle 6-9-10:   28.596
        Angle 6-9-11:   28.381
        Angle 6-9-12:  110.241
        Angle 6-9-13:  111.295
        Angle 6-9-14:  110.732
        Angle 7-9-8:   29.668
        Angle 7-9-10:   59.172
        Angle 7-9-11:   74.933
        Angle 7-9-12:  149.751
        Angle 7-9-13:  101.368
        Angle 7-9-14:   67.977
        Angle 8-9-10:   42.528
        Angle 8-9-11:   45.314
        Angle 8-9-12:  132.012
        Angle 8-9-13:  102.431
        Angle 8-9-14:   95.972
        Angle 10-9-11:   47.869
        Angle 10-9-12:   92.775
        Angle 10-9-13:  139.751
        Angle 10-9-14:   96.719
        Angle 11-9-12:   95.136
        Angle 11-9-13:   95.109
        Angle 11-9-14:  139.108
        Angle 12-9-13:  108.017
        Angle 12-9-14:  108.187
        Angle 13-9-14:  108.262
        Angle 1-10-2:   15.660
        Angle 1-10-3:   16.635
        Angle 1-10-4:   10.802
        Angle 1-10-5:   15.836
        Angle 1-10-6:   27.759
        Angle 1-10-7:   37.786
        Angle 1-10-8:   37.250
        Angle 1-10-9:   63.646
        Angle 1-10-11:   52.277
        Angle 1-10-12:   87.270
        Angle 1-10-13:   52.442
        Angle 1-10-14:   69.951
        Angle 2-10-3:   29.598
        Angle 2-10-4:    5.585
        Angle 2-10-5:   26.674
        Angle 2-10-6:   42.964
        Angle 2-10-7:   25.590
        Angle 2-10-8:   26.907
        Angle 2-10-9:   73.870
        Angle 2-10-11:   66.427
        Angle 2-10-12:   99.240
        Angle 2-10-13:   64.428
        Angle 2-10-14:   73.763
        Angle 3-10-4:   24.013
        Angle 3-10-5:   26.521
        Angle 3-10-6:   24.871
        Angle 3-10-7:   53.994
        Angle 3-10-8:   41.211
        Angle 3-10-9:   67.184
        Angle 3-10-11:   36.841
        Angle 3-10-12:   86.430
        Angle 3-10-13:   54.291
        Angle 3-10-14:   79.998
        Angle 4-10-5:   24.071
        Angle 4-10-6:   38.535
        Angle 4-10-7:   30.778
        Angle 4-10-8:   28.070
        Angle 4-10-9:   72.152
        Angle 4-10-11:   60.842
        Angle 4-10-12:   96.826
        Angle 4-10-13:   61.856
        Angle 4-10-14:   74.583
        Angle 5-10-6:   20.192
        Angle 5-10-7:   39.166
        Angle 5-10-8:   52.084
        Angle 5-10-9:   48.209
        Angle 5-10-11:   54.259
        Angle 5-10-12:   72.802
        Angle 5-10-13:   37.857
        Angle 5-10-14:   54.723
        Angle 6-10-7:   59.324
        Angle 6-10-8:   63.583
        Angle 6-10-9:   42.671
        Angle 6-10-11:   36.477
        Angle 6-10-12:   61.963
        Angle 6-10-13:   29.574
        Angle 6-10-14:   59.233
        Angle 7-10-8:   41.682
        Angle 7-10-9:   73.310
        Angle 7-10-11:   89.996
        Angle 7-10-12:   98.954
        Angle 7-10-13:   69.131
        Angle 7-10-14:   62.066
        Angle 8-10-9:  100.222
        Angle 8-10-11:   72.300
        Angle 8-10-12:  124.520
        Angle 8-10-13:   89.639
        Angle 8-10-14:   99.881
        Angle 9-10-11:   66.288
        Angle 9-10-12:   26.178
        Angle 9-10-13:   13.230
        Angle 9-10-14:   25.307
        Angle 11-10-12:   70.744
        Angle 11-10-13:   54.801
        Angle 11-10-14:   89.796
        Angle 12-10-13:   34.971
        Angle 12-10-14:   41.332
        Angle 13-10-14:   35.050
        Angle 1-11-2:   33.192
        Angle 1-11-3:   22.839
        Angle 1-11-4:    8.331
        Angle 1-11-5:   19.455
        Angle 1-11-6:   67.717
        Angle 1-11-7:   43.030
        Angle 1-11-8:   47.517
        Angle 1-11-9:   79.077
        Angle 1-11-10:   98.055
        Angle 1-11-12:  104.007
        Angle 1-11-13:   66.774
        Angle 1-11-14:   74.256
        Angle 2-11-3:   53.539
        Angle 2-11-4:   29.514
        Angle 2-11-5:   42.971
        Angle 2-11-6:   42.417
        Angle 2-11-7:   13.895
        Angle 2-11-8:   25.617
        Angle 2-11-9:   73.499
        Angle 2-11-10:   65.757
        Angle 2-11-12:   97.560
        Angle 2-11-13:   75.973
        Angle 2-11-14:   62.547
        Angle 3-11-4:   24.036
        Angle 3-11-5:   33.393
        Angle 3-11-6:   90.556
        Angle 3-11-7:   65.092
        Angle 3-11-8:   59.253
        Angle 3-11-9:   96.004
        Angle 3-11-10:  119.286
        Angle 3-11-12:  118.138
        Angle 3-11-13:   77.246
        Angle 3-11-14:   94.209
        Angle 4-11-5:   27.614
        Angle 4-11-6:   68.201
        Angle 4-11-7:   41.346
        Angle 4-11-8:   40.037
        Angle 4-11-9:   84.948
        Angle 4-11-10:   95.271
        Angle 4-11-12:  110.330
        Angle 4-11-13:   74.522
        Angle 4-11-14:   78.717
        Angle 5-11-6:   63.914
        Angle 5-11-7:   47.142
        Angle 5-11-8:   63.667
        Angle 5-11-9:   62.838
        Angle 5-11-10:   99.324
        Angle 5-11-12:   86.435
        Angle 5-11-13:   47.568
        Angle 5-11-14:   61.072
        Angle 6-11-7:   28.534
        Angle 6-11-8:   58.732
        Angle 6-11-9:   42.308
        Angle 6-11-10:   36.476
        Angle 6-11-12:   59.807
        Angle 6-11-13:   60.512
        Angle 6-11-14:   28.904
        Angle 7-11-8:   34.918
        Angle 7-11-9:   62.038
        Angle 7-11-10:   55.086
        Angle 7-11-12:   84.866
        Angle 7-11-13:   69.269
        Angle 7-11-14:   50.113
        Angle 8-11-9:   96.900
        Angle 8-11-10:   66.018
        Angle 8-11-12:  118.393
        Angle 8-11-13:  101.581
        Angle 8-11-14:   84.572
        Angle 9-11-10:   65.843
        Angle 9-11-12:   25.589
        Angle 9-11-13:   25.577
        Angle 9-11-14:   13.408
        Angle 10-11-12:   67.957
        Angle 10-11-13:   90.346
        Angle 10-11-14:   55.383
        Angle 12-11-13:   41.071
        Angle 12-11-14:   35.016
        Angle 13-11-14:   35.018
        Angle 1-12-2:   20.904
        Angle 1-12-3:   14.360
        Angle 1-12-4:    4.464
        Angle 1-12-5:   14.964
        Angle 1-12-6:   31.396
        Angle 1-12-7:   30.985
        Angle 1-12-8:   29.358
        Angle 1-12-9:   21.311
        Angle 1-12-10:   56.767
        Angle 1-12-11:   40.472
        Angle 1-12-13:   35.202
        Angle 1-12-14:   57.008
        Angle 2-12-3:   29.581
        Angle 2-12-4:   18.395
        Angle 2-12-5:   33.488
        Angle 2-12-6:   15.776
        Angle 2-12-7:   16.690
        Angle 2-12-8:   11.110
        Angle 2-12-9:   26.104
        Angle 2-12-10:   37.168
        Angle 2-12-11:   37.584
        Angle 2-12-13:   54.702
        Angle 2-12-14:   52.639
        Angle 3-12-4:   18.696
        Angle 3-12-5:   23.702
        Angle 3-12-6:   33.303
        Angle 3-12-7:   43.434
        Angle 3-12-8:   33.793
        Angle 3-12-9:   35.502
        Angle 3-12-10:   59.436
        Angle 3-12-11:   31.534
        Angle 3-12-13:   38.142
        Angle 3-12-14:   71.331
        Angle 4-12-5:   15.394
        Angle 4-12-6:   30.767
        Angle 4-12-7:   26.815
        Angle 4-12-8:   27.969
        Angle 4-12-9:   17.441
        Angle 4-12-10:   55.205
        Angle 4-12-11:   42.855
        Angle 4-12-13:   36.479
        Angle 4-12-14:   52.830
        Angle 5-12-6:   46.019
        Angle 5-12-7:   37.824
        Angle 5-12-8:   43.363
        Angle 5-12-9:   18.838
        Angle 5-12-10:   70.541
        Angle 5-12-11:   54.123
        Angle 5-12-13:   21.216
        Angle 5-12-14:   52.405
        Angle 6-12-7:   29.428
        Angle 6-12-8:    5.542
        Angle 6-12-9:   41.772
        Angle 6-12-10:   26.266
        Angle 6-12-11:   25.682
        Angle 6-12-13:   66.587
        Angle 6-12-14:   66.323
        Angle 7-12-8:   23.887
        Angle 7-12-9:   21.918
        Angle 7-12-10:   41.009
        Angle 7-12-11:   53.788
        Angle 7-12-13:   57.434
        Angle 7-12-14:   36.907
        Angle 8-12-9:   37.185
        Angle 8-12-10:   27.410
        Angle 8-12-11:   30.830
        Angle 8-12-13:   64.370
        Angle 8-12-14:   60.782
        Angle 9-12-10:   61.047
        Angle 9-12-11:   59.275
        Angle 9-12-13:   35.975
        Angle 9-12-14:   35.908
        Angle 10-12-11:   41.299
        Angle 10-12-13:   91.683
        Angle 10-12-14:   71.298
        Angle 11-12-13:   69.437
        Angle 11-12-14:   90.220
        Angle 13-12-14:   60.054
        Angle 1-13-2:   30.745
        Angle 1-13-3:   19.917
        Angle 1-13-4:    6.880
        Angle 1-13-5:   20.469
        Angle 1-13-6:   58.732
        Angle 1-13-7:   41.064
        Angle 1-13-8:   33.270
        Angle 1-13-9:   94.151
        Angle 1-13-10:   71.504
        Angle 1-13-11:   61.429
        Angle 1-13-12:  124.562
        Angle 1-13-14:   95.052
        Angle 2-13-3:   41.698
        Angle 2-13-4:   32.778
        Angle 2-13-5:   47.805
        Angle 2-13-6:   31.876
        Angle 2-13-7:   19.804
        Angle 2-13-8:    7.481
        Angle 2-13-9:   63.408
        Angle 2-13-10:   42.328
        Angle 2-13-11:   46.720
        Angle 2-13-12:   95.511
        Angle 2-13-14:   70.103
        Angle 3-13-4:   25.977
        Angle 3-13-5:   33.065
        Angle 3-13-6:   60.099
        Angle 3-13-7:   57.480
        Angle 3-13-8:   40.336
        Angle 3-13-9:  100.573
        Angle 3-13-10:   74.298
        Angle 3-13-11:   52.649
        Angle 3-13-12:  121.925
        Angle 3-13-14:  111.324
        Angle 4-13-5:   15.472
        Angle 4-13-6:   62.783
        Angle 4-13-7:   39.443
        Angle 4-13-8:   36.658
        Angle 4-13-9:   95.612
        Angle 4-13-10:   74.781
        Angle 4-13-11:   67.654
        Angle 4-13-12:  128.127
        Angle 4-13-14:   92.288
        Angle 5-13-6:   78.252
        Angle 5-13-7:   50.838
        Angle 5-13-8:   52.086
        Angle 5-13-9:  109.355
        Angle 5-13-10:   90.058
        Angle 5-13-11:   81.593
        Angle 5-13-12:  143.312
        Angle 5-13-14:   99.291
        Angle 6-13-7:   42.526
        Angle 6-13-8:   26.286
        Angle 6-13-9:   41.127
        Angle 6-13-10:   14.243
        Angle 6-13-11:   25.717
        Angle 6-13-12:   65.838
        Angle 6-13-14:   66.020
        Angle 7-13-8:   26.417
        Angle 7-13-9:   59.177
        Angle 7-13-10:   47.202
        Angle 7-13-11:   63.589
        Angle 7-13-12:   94.952
        Angle 7-13-14:   54.234
        Angle 8-13-9:   61.733
        Angle 8-13-10:   38.277
        Angle 8-13-11:   39.253
        Angle 8-13-12:   91.559
        Angle 8-13-14:   73.250
        Angle 9-13-10:   27.020
        Angle 9-13-11:   59.314
        Angle 9-13-12:   36.009
        Angle 9-13-14:   35.887
        Angle 10-13-11:   34.853
        Angle 10-13-12:   53.347
        Angle 10-13-14:   55.448
        Angle 11-13-12:   69.492
        Angle 11-13-14:   90.247
        Angle 12-13-14:   60.048
        Angle 1-14-2:   24.853
        Angle 1-14-3:   13.407
        Angle 1-14-4:   10.245
        Angle 1-14-5:   17.507
        Angle 1-14-6:   46.592
        Angle 1-14-7:   37.318
        Angle 1-14-8:   34.052
        Angle 1-14-9:   62.596
        Angle 1-14-10:   68.099
        Angle 1-14-11:   49.413
        Angle 1-14-12:   98.400
        Angle 1-14-13:   55.327
        Angle 2-14-3:   29.064
        Angle 2-14-4:   24.983
        Angle 2-14-5:   42.118
        Angle 2-14-6:   32.951
        Angle 2-14-7:   22.684
        Angle 2-14-8:    9.335
        Angle 2-14-9:   66.499
        Angle 2-14-10:   47.119
        Angle 2-14-11:   42.905
        Angle 2-14-12:   97.666
        Angle 2-14-13:   74.018
        Angle 3-14-4:   23.626
        Angle 3-14-5:   23.209
        Angle 3-14-6:   39.031
        Angle 3-14-7:   47.328
        Angle 3-14-8:   36.691
        Angle 3-14-9:   49.201
        Angle 3-14-10:   63.311
        Angle 3-14-11:   38.464
        Angle 3-14-12:   85.042
        Angle 3-14-13:   45.467
        Angle 4-14-5:   19.932
        Angle 4-14-6:   52.934
        Angle 4-14-7:   30.328
        Angle 4-14-8:   34.134
        Angle 4-14-9:   72.760
        Angle 4-14-10:   71.624
        Angle 4-14-11:   57.849
        Angle 4-14-12:  108.474
        Angle 4-14-13:   64.010
        Angle 5-14-6:   61.840
        Angle 5-14-7:   50.105
        Angle 5-14-8:   51.411
        Angle 5-14-9:   66.672
        Angle 5-14-10:   84.941
        Angle 5-14-11:   61.449
        Angle 5-14-12:  101.617
        Angle 5-14-13:   47.644
        Angle 6-14-7:   53.116
        Angle 6-14-8:   29.253
        Angle 6-14-9:   41.463
        Angle 6-14-10:   25.441
        Angle 6-14-11:   13.984
        Angle 6-14-12:   65.952
        Angle 6-14-13:   66.397
        Angle 7-14-8:   23.873
        Angle 7-14-9:   89.183
        Angle 7-14-10:   58.680
        Angle 7-14-11:   64.796
        Angle 7-14-12:  119.057
        Angle 7-14-13:   92.373
        Angle 8-14-9:   67.392
        Angle 8-14-10:   38.909
        Angle 8-14-11:   41.434
        Angle 8-14-12:   95.205
        Angle 8-14-13:   80.230
        Angle 9-14-10:   57.974
        Angle 9-14-11:   27.484
        Angle 9-14-12:   35.905
        Angle 9-14-13:   35.851
        Angle 10-14-11:   34.821
        Angle 10-14-12:   67.370
        Angle 10-14-13:   89.502
        Angle 11-14-12:   54.764
        Angle 11-14-13:   54.735
        Angle 12-14-13:   59.898


    Molecular point group: c1
    Full point group: C1

    Geometry (in Angstrom), charge = 0, multiplicity = 1:

    C       
    C             1    1.541620
    H             1    1.086030      2  110.732251
    H             1    1.085967      2  110.241401      3  119.687973
    H             1    1.085077      2  111.294885      3 -120.474484
    C             2    1.547201      1  113.891539      3   56.615392
    H             2    1.088640      1  109.311542      6  122.500299
    H             2    1.088621      1  108.733409      6 -120.958143
    C             6    1.541620      2  113.891510      1    dihedral
    H             6    1.088621      2  108.381553      9  121.154332
    H             6    1.088639      2  109.249680      9 -122.534222
    H             9    1.085967      6  110.241360     10   55.345121
    H             9    1.085077      6  111.294910     12  119.837533
    H             9    1.086030      6  110.732276     12 -119.687966

    dihedral  =   66.5136361373

