
    -----------------------------------------------------------------------
          Psi4: An Open-Source Ab Initio Electronic Structure Package
                               Psi4 1.9.1 release

                         Git: Rev {} zzzzzzz 


    D. G. A. Smith, L. A. Burns, A. C. Simmonett, R. M. Parrish,
    M. C. Schieber, R. Galvelis, P. Kraus, H. Kruse, R. Di Remigio,
    A. Alenaizan, A. M. James, S. Lehtola, J. P. Misiewicz, M. Scheurer,
    R. A. Shaw, J. B. Schriber, Y. Xie, Z. L. Glick, D. A. Sirianni,
    J. S. O'Brien, J. M. Waldrop, A. Kumar, E. G. Hohenstein,
    B. P. Pritchard, B. R. Brooks, H. F. Schaefer III, A. Yu. Sokolov,
    K. Patkowski, A. E. DePrince III, U. Bozkaya, R. A. King,
    F. A. Evangelista, J. M. Turney, T. D. Crawford, C. D. Sherrill,
    J. Chem. Phys. 152(18) 184108 (2020). https://doi.org/10.1063/5.0006002

                            Additional Code Authors
    E. T. Seidl, C. L. Janssen, E. F. Valeev, M. L. Leininger,
    J. F. Gonthier, R. M. Richard, H. R. McAlexander, M. Saitow, X. Wang,
    P. Verma, M. H. Lechner, A. Jiang, S. Behnle, A. G. Heide,
    M. F. Herbst, and D. L. Poole

             Previous Authors, Complete List of Code Contributors,
                       and Citations for Specific Modules
    https://github.com/psi4/psi4/blob/master/codemeta.json
    https://github.com/psi4/psi4/graphs/contributors
    http://psicode.org/psi4manual/master/introduction.html#citing-psifour

    -----------------------------------------------------------------------


    Psi4 started on: Thursday, 09 May 2024 01:23PM

    Process ID: 45068
    Host:       Barrys-MacBook-Pro.local
    PSIDATADIR: /Users/blink/psi4conda/share/psi4
    Memory:     953.7 MiB
    Threads:    1
      Threads set to 4 by Python driver.

Scratch directory: /tmp/
gradient() will perform analytic gradient computation.
   => Libint2 <=

    Primary   basis highest AM E, G, H:  5, 4, 3
    Auxiliary basis highest AM E, G, H:  6, 5, 4
    Onebody   basis highest AM E, G, H:  6, 5, 4
    Solid Harmonics ordering:            Gaussian

*** tstart() called on Barrys-MacBook-Pro.local
*** at Thu May  9 13:23:51 2024

   => Loading Basis Set <=

    Name: STO-3G
    Role: ORBITAL
    Keyword: BASIS
    atoms 1-2, 6, 9       entry C          line    61 file /Users/blink/psi4conda/share/psi4/basis/sto-3g.gbs 
    atoms 3-5, 7-8, 10-14 entry H          line    19 file /Users/blink/psi4conda/share/psi4/basis/sto-3g.gbs 


         ---------------------------------------------------------
                                   SCF
               by Justin Turney, Rob Parrish, Andy Simmonett
                          and Daniel G. A. Smith
                              RHF Reference
                        4 Threads,    953 MiB Core
         ---------------------------------------------------------

  ==> Geometry <==

    Molecular point group: c1
    Full point group: C1

    Geometry (in Angstrom), charge = 0, multiplicity = 1:

       Center              X                  Y                   Z               Mass       
    ------------   -----------------  -----------------  -----------------  -----------------
         C            0.630165507294    -0.326942830914    -1.742321626664    12.000000000000
         C            0.630165507294    -0.326942830914    -0.242321626664    12.000000000000
         H            0.630165507294     0.618575744685    -2.067889781122     1.007825032230
         H            1.449008613513    -0.799702118714    -2.067889781122     1.007825032230
         H           -0.188677598925    -0.799702118714    -2.067889781122     1.007825032230
         C           -0.598099152034     0.382196100785     0.246030605021    12.000000000000
         H            0.630165507294    -1.272461406514     0.083246527793     1.007825032230
         H            1.449008613513     0.145816456885     0.083246527793     1.007825032230
         C           -0.661426361147     0.276024323781     1.740927664472    12.000000000000
         H           -0.548888447724     1.343282798775    -0.025797770113     1.007825032230
         H           -1.404859433581    -0.046363306041    -0.160755189888     1.007825032230
         H           -0.640155126686     1.195370111741     2.133802780437     1.007825032230
         H           -1.510230124574    -0.185491666639     1.998871770393     1.007825032230
         H            0.124871522623    -0.250937772749     2.063490196082     1.007825032230

  Running in c1 symmetry.

  Rotational constants: A =      0.84026  B =      0.13317  C =      0.12421 [cm^-1]
  Rotational constants: A =  25190.23203  B =   3992.29139  C =   3723.63571 [MHz]
  Nuclear repulsion =  137.447554654636633

  Charge       = 0
  Multiplicity = 1
  Electrons    = 34
  Nalpha       = 17
  Nbeta        = 17

  ==> Algorithm <==

  SCF Algorithm Type is DIRECT.
  DIIS enabled.
  MOM disabled.
  Fractional occupation disabled.
  Guess Type is SAD.
  Energy threshold   = 1.00e-08
  Density threshold  = 1.00e-08
  Integral threshold = 1.00e-08

  ==> Primary Basis <==

  -AO BASIS SET INFORMATION:
    Name                   = STO-3G
    Blend                  = STO-3G
    Total number of shells = 22
    Number of primitives   = 66
    Number of AO           = 30
    Number of SO           = 30
    Maximum AM             = 1
    Spherical Harmonics    = TRUE

  -Contraction Scheme:
    Atom   Type   All Primitives // Shells:
   ------ ------ --------------------------
       1     C     6s 3p // 2s 1p 
       2     C     6s 3p // 2s 1p 
       3     H     3s // 1s 
       4     H     3s // 1s 
       5     H     3s // 1s 
       6     C     6s 3p // 2s 1p 
       7     H     3s // 1s 
       8     H     3s // 1s 
       9     C     6s 3p // 2s 1p 
      10     H     3s // 1s 
      11     H     3s // 1s 
      12     H     3s // 1s 
      13     H     3s // 1s 
      14     H     3s // 1s 

   => Loading Basis Set <=

    Name: (STO-3G AUX)
    Role: JKFIT
    Keyword: DF_BASIS_SCF
    atoms 1-2, 6, 9       entry C          line   198 file /Users/blink/psi4conda/share/psi4/basis/def2-universal-jkfit.gbs 
    atoms 3-5, 7-8, 10-14 entry H          line    18 file /Users/blink/psi4conda/share/psi4/basis/def2-universal-jkfit.gbs 

  Starting with a DF guess...

  ==> Integral Setup <==

  DFHelper Memory: AOs need 0.005 GiB; user supplied 0.698 GiB. 
  Using in-core AOs.

  ==> MemDFJK: Density-Fitted J/K Matrices <==

    J tasked:                   Yes
    K tasked:                   Yes
    wK tasked:                   No
    OpenMP threads:               4
    Memory [MiB]:               715
    Algorithm:                 Core
    Schwarz Cutoff:           1E-08
    Mask sparsity (%):       0.6667
    Fitting Condition:        1E-10

   => Auxiliary Basis Set <=

  -AO BASIS SET INFORMATION:
    Name                   = (STO-3G AUX)
    Blend                  = DEF2-UNIVERSAL-JKFIT
    Total number of shells = 160
    Number of primitives   = 212
    Number of AO           = 556
    Number of SO           = 480
    Maximum AM             = 4
    Spherical Harmonics    = TRUE

  -Contraction Scheme:
    Atom   Type   All Primitives // Shells:
   ------ ------ --------------------------
       1     C     14s 10p 6d 2f 1g // 10s 8p 5d 1f 1g 
       2     C     14s 10p 6d 2f 1g // 10s 8p 5d 1f 1g 
       3     H     4s 2p 2d // 2s 2p 2d 
       4     H     4s 2p 2d // 2s 2p 2d 
       5     H     4s 2p 2d // 2s 2p 2d 
       6     C     14s 10p 6d 2f 1g // 10s 8p 5d 1f 1g 
       7     H     4s 2p 2d // 2s 2p 2d 
       8     H     4s 2p 2d // 2s 2p 2d 
       9     C     14s 10p 6d 2f 1g // 10s 8p 5d 1f 1g 
      10     H     4s 2p 2d // 2s 2p 2d 
      11     H     4s 2p 2d // 2s 2p 2d 
      12     H     4s 2p 2d // 2s 2p 2d 
      13     H     4s 2p 2d // 2s 2p 2d 
      14     H     4s 2p 2d // 2s 2p 2d 

  Minimum eigenvalue in the overlap matrix is 1.6084333198E-01.
  Reciprocal condition number of the overlap matrix is 5.6879137713E-02.
    Using symmetric orthogonalization.

  ==> Pre-Iterations <==

  SCF Guess: Superposition of Atomic Densities via on-the-fly atomic UHF (no occupation information).

   -------------------------
    Irrep   Nso     Nmo    
   -------------------------
     A         30      30 
   -------------------------
    Total      30      30
   -------------------------

  ==> Iterations <==

                           Total Energy        Delta E     RMS |[F,P]|

   @DF-RHF iter SAD:  -152.37602919246518   -1.52376e+02   0.00000e+00 
   @DF-RHF iter   1:  -155.37543606371915   -2.99941e+00   2.97072e-03 DIIS/ADIIS
   @DF-RHF iter   2:  -155.38072565365351   -5.28959e-03   5.72455e-04 DIIS/ADIIS
   @DF-RHF iter   3:  -155.38096850972303   -2.42856e-04   9.20898e-05 DIIS
   @DF-RHF iter   4:  -155.38097394087342   -5.43115e-06   6.30043e-06 DIIS
   @DF-RHF iter   5:  -155.38097396852882   -2.76554e-08   9.45804e-07 DIIS
   @DF-RHF iter   6:  -155.38097396914466   -6.15842e-10   1.36618e-07 DIIS
   @DF-RHF iter   7:  -155.38097396916208   -1.74225e-11   2.45837e-08 DIIS
   @DF-RHF iter   8:  -155.38097396916282   -7.38964e-13   3.29886e-09 DIIS

  DF guess converged.

  ==> DirectJK: Integral-Direct J/K Matrices <==

    J tasked:                  Yes
    K tasked:                  Yes
    wK tasked:                  No
    Integrals threads:           4
    Screening Type:           CSAM
    Screening Cutoff:        1E-08
    Incremental Fock:           No

   @RHF iter   9:  -155.38046792797857   -1.55380e+02   4.22776e-06 DIIS
   @RHF iter  10:  -155.38046793497205   -6.99347e-09   5.71088e-07 DIIS
   @RHF iter  11:  -155.38046793512046   -1.48418e-10   9.11773e-08 DIIS
   @RHF iter  12:  -155.38046793512655   -6.08225e-12   1.47374e-08 DIIS
   @RHF iter  13:  -155.38046793512660   -5.68434e-14   8.86329e-10 DIIS
  Energy and wave function converged.


  ==> Post-Iterations <==

    Orbital Energies [Eh]
    ---------------------

    Doubly Occupied:                                                      

       1A    -11.033427     2A    -11.031785     3A    -11.024716  
       4A    -11.023603     5A     -1.072495     6A     -0.981951  
       7A     -0.860938     8A     -0.800411     9A     -0.657920  
      10A     -0.593460    11A     -0.585089    12A     -0.570940  
      13A     -0.507518    14A     -0.504434    15A     -0.462253  
      16A     -0.456525    17A     -0.419155  

    Virtual:                                                              

      18A      0.655870    19A      0.665359    20A      0.696195  
      21A      0.732425    22A      0.762561    23A      0.807674  
      24A      0.839628    25A      0.852542    26A      0.869796  
      27A      0.898139    28A      0.921105    29A      0.939288  
      30A      0.964668  

    Final Occupation by Irrep:
              A 
    DOCC [    17 ]
    NA   [    17 ]
    NB   [    17 ]

  @RHF Final Energy:  -155.38046793512660

   => Energetics <=

    Nuclear Repulsion Energy =            137.4475546546366331
    One-Electron Energy =                -480.4828029638248381
    Two-Electron Energy =                 187.6547803740616018
    Total Energy =                       -155.3804679351266032

Computation Completed


Properties will be evaluated at   0.000000,   0.000000,   0.000000 [a0]

Properties computed using the SCF density matrix


 Multipole Moments:

 ------------------------------------------------------------------------------------
     Multipole            Electronic (a.u.)      Nuclear  (a.u.)        Total (a.u.)
 ------------------------------------------------------------------------------------

 L = 1.  Multiply by 2.5417464519 to convert [e a0] to [Debye]
 Dipole X            :          0.0109077           -0.0089912            0.0019165
 Dipole Y            :          0.0505579           -0.0483859            0.0021720
 Dipole Z            :          0.0301246           -0.0258409            0.0042837
 Magnitude           :                                                    0.0051711

 ------------------------------------------------------------------------------------

*** tstop() called on Barrys-MacBook-Pro.local at Thu May  9 13:23:52 2024
Module time:
	user time   =       4.17 seconds =       0.07 minutes
	system time =       0.17 seconds =       0.00 minutes
	total time  =          1 seconds =       0.02 minutes
Total time:
	user time   =       4.17 seconds =       0.07 minutes
	system time =       0.17 seconds =       0.00 minutes
	total time  =          1 seconds =       0.02 minutes

*** tstart() called on Barrys-MacBook-Pro.local
*** at Thu May  9 13:23:52 2024


         ------------------------------------------------------------
                                   SCF GRAD                          
                          Rob Parrish, Justin Turney,                
                       Andy Simmonett, and Alex Sokolov              
         ------------------------------------------------------------

  ==> Geometry <==

    Molecular point group: c1
    Full point group: C1

    Geometry (in Angstrom), charge = 0, multiplicity = 1:

       Center              X                  Y                   Z               Mass       
    ------------   -----------------  -----------------  -----------------  -----------------
         C            0.630165507294    -0.326942830914    -1.742321626664    12.000000000000
         C            0.630165507294    -0.326942830914    -0.242321626664    12.000000000000
         H            0.630165507294     0.618575744685    -2.067889781122     1.007825032230
         H            1.449008613513    -0.799702118714    -2.067889781122     1.007825032230
         H           -0.188677598925    -0.799702118714    -2.067889781122     1.007825032230
         C           -0.598099152034     0.382196100785     0.246030605021    12.000000000000
         H            0.630165507294    -1.272461406514     0.083246527793     1.007825032230
         H            1.449008613513     0.145816456885     0.083246527793     1.007825032230
         C           -0.661426361147     0.276024323781     1.740927664472    12.000000000000
         H           -0.548888447724     1.343282798775    -0.025797770113     1.007825032230
         H           -1.404859433581    -0.046363306041    -0.160755189888     1.007825032230
         H           -0.640155126686     1.195370111741     2.133802780437     1.007825032230
         H           -1.510230124574    -0.185491666639     1.998871770393     1.007825032230
         H            0.124871522623    -0.250937772749     2.063490196082     1.007825032230

  Nuclear repulsion =  137.447554654636605

  ==> Basis Set <==

  -AO BASIS SET INFORMATION:
    Name                   = STO-3G
    Blend                  = STO-3G
    Total number of shells = 22
    Number of primitives   = 66
    Number of AO           = 30
    Number of SO           = 30
    Maximum AM             = 1
    Spherical Harmonics    = TRUE

  -Contraction Scheme:
    Atom   Type   All Primitives // Shells:
   ------ ------ --------------------------
       1     C     6s 3p // 2s 1p 
       2     C     6s 3p // 2s 1p 
       3     H     3s // 1s 
       4     H     3s // 1s 
       5     H     3s // 1s 
       6     C     6s 3p // 2s 1p 
       7     H     3s // 1s 
       8     H     3s // 1s 
       9     C     6s 3p // 2s 1p 
      10     H     3s // 1s 
      11     H     3s // 1s 
      12     H     3s // 1s 
      13     H     3s // 1s 
      14     H     3s // 1s 

  ==> DirectJKGrad: Integral-Direct SCF Gradients <==

    Gradient:                    1
    J tasked:                  Yes
    K tasked:                  Yes
    wK tasked:                  No
    Integrals threads:           4
    Schwarz Cutoff:          1E-08


  -Nuclear Gradient:
     Atom            X                  Y                   Z
    ------   -----------------  -----------------  -----------------
       1       -1.321871185060     0.724087674355     6.154244679652
       2       -4.065086435251     2.222238278484    -1.001799857303
       3       -0.186735583883    -2.013516598364     1.383568454225
       4       -1.888652177065     1.086656870311     1.227509353172
       5        1.644023456997     1.162781622540     1.389218152439
       6        3.881289781061    -2.608091196829     0.949195376172
       7       -0.400426309173     2.473290180929    -0.758256178886
       8       -2.338090284980    -0.917410744231    -0.778668291431
       9        1.527505067073    -0.385957110493    -6.128045475494
      10        0.263054560257    -2.531435403309     0.639345633230
      11        2.313854040040     0.763797528715     0.941891131888
      12        0.093287565493    -2.050792012830    -1.410268199270
      13        2.000104464330     0.973742759269    -1.116623553432
      14       -1.522256959838     1.100608151453    -1.491311224961


  -Core Hamiltonian Gradient:
     Atom            X                  Y                   Z
    ------   -----------------  -----------------  -----------------
       1        2.611846912076    -1.437294121269   -11.803922779656
       2        7.571548471874    -4.127826056513     1.817346425526
       3        0.350854599193     5.018847701053    -2.913787220069
       4        4.515617026210    -2.601264623098    -2.570375681066
       5       -4.165387318904    -2.803226990128    -2.925464594080
       6       -7.353310212169     4.911623009688    -1.402810779055
       7        0.715723158063    -6.002865316281     1.841588650602
       8        5.542435238381     2.435677992631     1.850560992958
       9       -3.004945427893     0.786630829670    11.673150252914
      10       -0.341361967427     6.131572184267    -1.538998278011
      11       -5.474623700546    -2.123947512998    -2.330796988603
      12       -0.143562690219     5.012920527920     2.986253043345
      13       -4.814588155448    -2.395779947507     2.269027753648
      14        3.989754066809    -2.805067677432     3.048229201547


  -Overlap Gradient:
     Atom            X                  Y                   Z
    ------   -----------------  -----------------  -----------------
       1        0.003190546661    -0.001574828420    -0.034877119550
       2        0.032020665675    -0.018007410894     0.014438416849
       3        0.000478926590    -0.144432821631     0.046100187157
       4       -0.124647873748     0.072006137510     0.046606469086
       5        0.125428697553     0.071765726588     0.046034957317
       6       -0.024342956594     0.018169061902    -0.026575985486
       7        0.001156897946     0.143951754635    -0.049010801968
       8       -0.124296519709    -0.073118679259    -0.048060236137
       9       -0.004882484099    -0.000229294809     0.037277693804
      10       -0.010134118045    -0.146656988486     0.040559194360
      11        0.121787680952     0.067573124783     0.062059041729
      12       -0.003494419688    -0.141393216532    -0.056114875610
      13        0.130099225329     0.070623375815    -0.035482773252
      14       -0.122364268823     0.081324058798    -0.042954168299


  -Coulomb Gradient:
     Atom            X                  Y                   Z
    ------   -----------------  -----------------  -----------------
       1       -1.292704108800     0.714613530526     5.571753323580
       2       -3.436991817613     1.865162140281    -0.758993458709
       3       -0.164303158920    -3.234316349438     1.612264973990
       4       -2.825666203934     1.629322881154     1.424546491064
       5        2.719493902020     1.755126514632     1.618335193920
       6        3.410187025025    -2.259852140971     0.392304667005
       7       -0.317292373077     3.759136332198    -1.163280922129
       8       -3.404095160982    -1.631236845318    -1.152362643529
       9        1.476567802809    -0.407815882619    -5.468565466568
      10        0.068808717515    -3.833224379273     0.967444095557
      11        3.357443690739     1.461776575633     1.488862873894
      12        0.045215580496    -3.184263556877    -1.674497194063
      13        3.019907200828     1.533956056656    -1.218250686357
      14       -2.656571096107     1.831615123416    -1.639561247656


  -Exchange Gradient:
     Atom            X                  Y                   Z
    ------   -----------------  -----------------  -----------------
       1       -0.008062063003     0.003912379786     0.045590047172
       2       -0.042068881945     0.023510985572    -0.009002140379
       3       -0.000295235285     0.286963142950    -0.092381172685
       4        0.248178341209    -0.143405105827    -0.090772230624
       5       -0.248824857720    -0.143181085140    -0.092519223376
       6        0.027597832694    -0.021322937125     0.036716112476
       7       -0.001325453258    -0.284122759934     0.094386055426
       8        0.245341940937     0.143749256449     0.092970030850
       9        0.010703490280    -0.002460526715    -0.052819992639
      10        0.019270201656     0.289283626333    -0.078666968060
      11       -0.241036449807    -0.132722023959    -0.120719783563
      12        0.007147454775     0.281531830211     0.110027666420
      13       -0.258744233637    -0.140520170410     0.069013637185
      14        0.242117913103    -0.161216612192     0.088177961800


  -Total Gradient:
     Atom            X                  Y                   Z
    ------   -----------------  -----------------  -----------------
       1       -0.007599898127     0.003744634978    -0.067211848802
       2        0.059422002739    -0.034922063070     0.061989385984
       3       -0.000000452305    -0.086454925429     0.035765222618
       4       -0.075170887328     0.043316160050     0.037514401631
       5        0.074733879946     0.043265788491     0.035604486220
       6       -0.058578529981     0.040525796664    -0.051170608888
       7       -0.002164079500     0.089390191547    -0.034573196955
       8       -0.078704786352    -0.042339019729    -0.035560147288
       9        0.004948448170    -0.009831984966     0.060997012017
      10       -0.000362606043    -0.090460960468     0.029683677076
      11        0.077425261378     0.036477692174     0.041296275345
      12       -0.001406509142    -0.081996428107    -0.044599559178
      13        0.076778501402     0.042022073823    -0.032315622208
      14       -0.069320344856     0.047263044042    -0.037419477570


*** tstop() called on Barrys-MacBook-Pro.local at Thu May  9 13:23:52 2024
Module time:
	user time   =       0.50 seconds =       0.01 minutes
	system time =       0.00 seconds =       0.00 minutes
	total time  =          0 seconds =       0.00 minutes
Total time:
	user time   =       4.68 seconds =       0.08 minutes
	system time =       0.17 seconds =       0.00 minutes
	total time  =          1 seconds =       0.02 minutes

    			-----------------------------------------

    			 OPTKING 3.0: for geometry optimizations 

    			     By R.A. King, Bethel University     

    			        with contributions from          

    			    A.V. Copan, J. Cayton, A. Heide      

    			-----------------------------------------

    
	                            ===> Fragment 1 <== 

	 Z (Atomic Numbers)          Masses                          Geom                  
	       6.000000            12.000000          1.19084022 -0.61783241 -3.29251070   
	       6.000000            12.000000          1.19084022 -0.61783241 -0.45792151   
	       1.000000             1.007825          1.19084022  1.16893875 -3.90774534   
	       1.000000             1.007825          2.73822943 -1.51121799 -3.90774534   
	       1.000000             1.007825         -0.35654899 -1.51121799 -3.90774534   
	       6.000000            12.000000         -1.13024359  0.72224596  0.46493046   
	       1.000000             1.007825          1.19084022 -2.40460356  0.15731314   
	       1.000000             1.007825          2.73822943  0.27555317  0.15731314   
	       6.000000            12.000000         -1.24991467  0.52161038  3.28987649   
	       1.000000             1.007825         -1.03724884  2.53843660 -0.04875072   
	       1.000000             1.007825         -2.65479957 -0.08761395 -0.30378328   
	       1.000000             1.007825         -1.20971787  2.25892213  4.03230286   
	       1.000000             1.007825         -2.85392132 -0.35052845  3.77732021   
	       1.000000             1.007825          0.23597298 -0.47420367  3.89943133   

	 - Coordinate -           - BOHR/RAD -       - ANG/DEG -
	 R(1,2)           =         2.834589           1.500000
	 R(1,3)           =         1.889726           1.000000
	 R(1,4)           =         1.889726           1.000000
	 R(1,5)           =         1.889726           1.000000
	 R(2,6)           =         2.834589           1.500000
	 R(2,7)           =         1.889726           1.000000
	 R(2,8)           =         1.889726           1.000000
	 R(6,9)           =         2.834589           1.500000
	 R(6,10)          =         1.889726           1.000000
	 R(6,11)          =         1.889726           1.000000
	 R(9,12)          =         1.889726           1.000000
	 R(9,13)          =         1.889726           1.000000
	 R(9,14)          =         1.889726           1.000000
	 B(1,2,6)         =         1.902409         109.000000
	 B(1,2,7)         =         1.902409         109.000000
	 B(1,2,8)         =         1.902409         109.000000
	 B(2,1,3)         =         1.902409         109.000000
	 B(2,1,4)         =         1.902409         109.000000
	 B(2,1,5)         =         1.902409         109.000000
	 B(2,6,9)         =         1.902409         109.000000
	 B(2,6,10)        =         1.902409         109.000000
	 B(2,6,11)        =         1.902409         109.000000
	 B(3,1,4)         =         1.918785         109.938303
	 B(3,1,5)         =         1.918785         109.938303
	 B(4,1,5)         =         1.918785         109.938303
	 B(6,2,7)         =         1.918785         109.938303
	 B(6,2,8)         =         1.918785         109.938303
	 B(6,9,12)        =         1.902409         109.000000
	 B(6,9,13)        =         1.902409         109.000000
	 B(6,9,14)        =         1.902409         109.000000
	 B(7,2,8)         =         1.918785         109.938303
	 B(9,6,10)        =         1.918785         109.938303
	 B(9,6,11)        =         1.918785         109.938303
	 B(10,6,11)       =         1.918785         109.938303
	 B(12,9,13)       =         1.918785         109.938303
	 B(12,9,14)       =         1.918785         109.938303
	 B(13,9,14)       =         1.918785         109.938303
	 D(1,2,6,9)       =         3.054326         175.000000
	 D(1,2,6,10)      =        -1.134464         -65.000000
	 D(1,2,6,11)      =         0.959931          55.000000
	 D(2,6,9,12)      =         2.084249         119.418677
	 D(2,6,9,13)      =        -2.104541        -120.581323
	 D(2,6,9,14)      =        -0.010146          -0.581323
	 D(3,1,2,6)       =         1.047198          60.000000
	 D(3,1,2,7)       =         3.141593         180.000000
	 D(3,1,2,8)       =        -1.047198         -60.000000
	 D(4,1,2,6)       =         3.141593         180.000000
	 D(4,1,2,7)       =        -1.047198         -60.000000
	 D(4,1,2,8)       =         1.047198          60.000000
	 D(5,1,2,6)       =        -1.047198         -60.000000
	 D(5,1,2,7)       =         1.047198          60.000000
	 D(5,1,2,8)       =         3.141593         180.000000
	 D(7,2,6,9)       =         0.970077          55.581323
	 D(7,2,6,10)      =         3.064472         175.581323
	 D(7,2,6,11)      =        -1.124318         -64.418677
	 D(8,2,6,9)       =        -1.144610         -65.581323
	 D(8,2,6,10)      =         0.949785          54.418677
	 D(8,2,6,11)      =         3.044180         174.418677
	 D(10,6,9,12)     =        -0.000000          -0.000000
	 D(10,6,9,13)     =         2.094395         120.000000
	 D(10,6,9,14)     =        -2.094395        -120.000000
	 D(11,6,9,12)     =        -2.114687        -121.162647
	 D(11,6,9,13)     =        -0.020292          -1.162647
	 D(11,6,9,14)     =         2.074103         118.837353


	        --- Internal Coordinate Step in ANG or DEG, aJ/ANG or AJ/DEG ---
	-------------------------------------------------------------------------------
	           Coordinate      Previous         Force          Change          New 
	           ----------      --------        ------          ------        ------
	               R(1,2)       1.50000        0.34333        0.04443       1.54443
	               R(1,3)       1.00000        0.76940        0.07609       1.07609
	               R(1,4)       1.00000        0.77646        0.07679       1.07679
	               R(1,5)       1.00000        0.76819        0.07597       1.07597
	               R(2,6)       1.50000        0.35116        0.04544       1.54544
	               R(2,7)       1.00000        0.78907        0.07804       1.07804
	               R(2,8)       1.00000        0.79125        0.07825       1.07825
	               R(6,9)       1.50000        0.44028        0.05697       1.55697
	              R(6,10)       1.00000        0.78291        0.07743       1.07743
	              R(6,11)       1.00000        0.78182        0.07732       1.07732
	              R(9,12)       1.00000        0.76567        0.07572       1.07572
	              R(9,13)       1.00000        0.76537        0.07569       1.07569
	              R(9,14)       1.00000        0.75370        0.07454       1.07454
	             B(1,2,6)     109.00000        0.00125        2.51715     111.51715
	             B(1,2,7)     109.00000       -0.00023       -0.26092     108.73908
	             B(1,2,8)     109.00000       -0.00024       -0.29816     108.70184
	             B(2,1,3)     109.00000        0.00039        0.86973     109.86973
	             B(2,1,4)     109.00000        0.00058        1.32077     110.32077
	             B(2,1,5)     109.00000        0.00038        0.83622     109.83622
	             B(2,6,9)     109.00000        0.00155        3.13588     112.13588
	            B(2,6,10)     109.00000       -0.00043       -0.78855     108.21145
	            B(2,6,11)     109.00000       -0.00044       -0.79573     108.20427
	             B(3,1,4)     109.93830       -0.00047       -1.05472     108.88358
	             B(3,1,5)     109.93830       -0.00040       -0.93160     109.00670
	             B(4,1,5)     109.93830       -0.00046       -1.04394     108.89436
	             B(6,2,7)     109.93830       -0.00040       -0.79741     109.14089
	             B(6,2,8)     109.93830       -0.00040       -0.82432     109.11399
	            B(6,9,12)     109.00000        0.00065        1.45873     110.45873
	            B(6,9,13)     109.00000        0.00063        1.41653     110.41653
	            B(6,9,14)     109.00000        0.00060        1.34893     110.34893
	             B(7,2,8)     109.93830        0.00004       -0.33114     109.60716
	            B(9,6,10)     109.93830       -0.00037       -0.60006     109.33824
	            B(9,6,11)     109.93830       -0.00034       -0.51480     109.42350
	           B(10,6,11)     109.93830        0.00004       -0.45183     109.48647
	           B(12,9,13)     109.93830       -0.00063       -1.45140     108.48690
	           B(12,9,14)     109.93830       -0.00062       -1.41436     108.52394
	           B(13,9,14)     109.93830       -0.00061       -1.39409     108.54422
	           D(1,2,6,9)     175.00000        0.00005        0.17857     175.17857
	          D(1,2,6,10)     -65.00000        0.00027        0.85441     -64.14559
	          D(1,2,6,11)      55.00000       -0.00021       -0.59882      54.40118
	          D(2,6,9,12)     119.41868       -0.00000       -0.01329     119.40538
	          D(2,6,9,13)    -120.58132       -0.00000       -0.01437    -120.59569
	          D(2,6,9,14)      -0.58132       -0.00000       -0.01477      -0.59610
	           D(3,1,2,6)      60.00000       -0.00002       -0.08117      59.91883
	           D(3,1,2,7)     180.00000        0.00010        0.31212     180.31212
	           D(3,1,2,8)     -60.00000       -0.00013       -0.41662     -60.41662
	           D(4,1,2,6)     180.00000       -0.00001       -0.02780     179.97220
	           D(4,1,2,7)     -60.00000        0.00012        0.36549     -59.63451
	           D(4,1,2,8)      60.00000       -0.00012       -0.36325      59.63675
	           D(5,1,2,6)     -60.00000        0.00001        0.01760     -59.98240
	           D(5,1,2,7)      60.00000        0.00013        0.41089      60.41089
	           D(5,1,2,8)     180.00000       -0.00010       -0.31785     179.68215
	           D(7,2,6,9)      55.58132       -0.00020       -0.55985      55.02147
	          D(7,2,6,10)     175.58132        0.00003        0.11599     175.69732
	          D(7,2,6,11)     -64.41868       -0.00045       -1.33723     -65.75591
	           D(8,2,6,9)     -65.58132        0.00027        0.85292     -64.72840
	          D(8,2,6,10)      54.41868        0.00049        1.52877      55.94744
	          D(8,2,6,11)     174.41868        0.00001        0.07554     174.49421
	         D(10,6,9,12)      -0.00000       -0.00020       -0.61623      -0.61623
	         D(10,6,9,13)     120.00000       -0.00020       -0.61731     119.38269
	         D(10,6,9,14)    -120.00000       -0.00020       -0.61771    -120.61771
	         D(11,6,9,12)    -121.16265        0.00021        0.63805    -120.52459
	         D(11,6,9,13)      -1.16265        0.00020        0.63698      -0.52567
	         D(11,6,9,14)     118.83735        0.00020        0.63657     119.47393
	-------------------------------------------------------------------------------

	                                 ==> Convergence Check <==                                  
    
	Measures of convergence in internal coordinates in au.
    
	Criteria marked as inactive (o), active & met (*), and active & unmet ( ).

	----------------------------------------------------------------------------------------------
	   Step    Total Energy     Delta E     Max Force     RMS Force      Max Disp      RMS Disp   
	----------------------------------------------------------------------------------------------
	  Convergence Criteria     1.00e-06 *    3.00e-04 *             o    1.20e-03 *             o
	----------------------------------------------------------------------------------------------
	     1    -155.38046794   -1.55e+02      9.60e-02      3.88e-02 o    1.48e-01      6.25e-02 o  ~
	----------------------------------------------------------------------------------------------

Next Geometry in Ang 
	Fragment 1 (Ang)

	    C   0.6636947425  -0.3423565389  -1.8223205195
	    C   0.6468057146  -0.3359665177  -0.2779992469
	    H   0.6653703365   0.6681475330  -2.1922530042
	    H   1.5429084409  -0.8475517587  -2.1845827791
	    H  -0.2085000369  -0.8504692148  -2.1948934291
	    C  -0.6050659520   0.3840881631   0.2722056070
	    H   0.6509237585  -1.3553845308   0.0726162644
	    H   1.5299899874   0.1717530234   0.0753164478
	    C  -0.6987416710   0.2948038299   1.8237913336
	    H  -0.5553381698   1.4190150634  -0.0232605368
	    H  -1.4763543713  -0.0733504111  -0.1662244683
	    H  -0.6825315119   1.2785624332   2.2586845497
	    H  -1.6115734842  -0.1928235255   2.1171698675
	    H   0.1296267507  -0.2657460630   2.2165004294


    Structure for next step:
    Molecular point group: c1
    Full point group: C1

    Geometry (in Angstrom), charge = 0, multiplicity = 1:

    C       
    C             1    1.544427
    H             1    1.076091      2  109.869725
    H             1    1.076788      2  110.320772      3  120.053370
    H             1    1.075971      2  109.836216      3 -119.901238
    C             2    1.545441      1  111.517149      3   59.918834
    H             2    1.078036      1  108.739080      6  120.393289
    H             2    1.078251      1  108.701843      6 -120.335449
    C             6    1.556973      2  112.135881      1    dihedral
    H             6    1.077426      2  108.211447      9  120.675845
    H             6    1.077318      2  108.204273      9 -120.777384
    H             9    1.075721      6  110.458735     10   -0.616231
    H             9    1.075692      6  110.416533     10  119.382692
    H             9    1.074538      6  110.348930     10 -120.617713

    dihedral  =  175.1785680414


Scratch directory: /tmp/
gradient() will perform analytic gradient computation.
   => Libint2 <=

    Primary   basis highest AM E, G, H:  5, 4, 3
    Auxiliary basis highest AM E, G, H:  6, 5, 4
    Onebody   basis highest AM E, G, H:  6, 5, 4
    Solid Harmonics ordering:            Gaussian

*** tstart() called on Barrys-MacBook-Pro.local
*** at Thu May  9 13:23:53 2024

   => Loading Basis Set <=

    Name: STO-3G
    Role: ORBITAL
    Keyword: BASIS
    atoms 1-2, 6, 9       entry C          line    61 file /Users/blink/psi4conda/share/psi4/basis/sto-3g.gbs 
    atoms 3-5, 7-8, 10-14 entry H          line    19 file /Users/blink/psi4conda/share/psi4/basis/sto-3g.gbs 


         ---------------------------------------------------------
                                   SCF
               by Justin Turney, Rob Parrish, Andy Simmonett
                          and Daniel G. A. Smith
                              RHF Reference
                        4 Threads,    953 MiB Core
         ---------------------------------------------------------

  ==> Geometry <==

    Molecular point group: c1
    Full point group: C1

    Geometry (in Angstrom), charge = 0, multiplicity = 1:

       Center              X                  Y                   Z               Mass       
    ------------   -----------------  -----------------  -----------------  -----------------
         C            0.641842412530    -0.335580706168    -1.829598899957    12.000000000000
         C            0.641842412530    -0.335580706168    -0.285172059809    12.000000000000
         H            0.641842412530     0.676448060611    -2.195343490529     1.007825032230
         H            1.515860166621    -0.841281184784    -2.203541239971     1.007825032230
         H           -0.235558453660    -0.840133802601    -2.194710787440     1.007825032230
         C           -0.602253469226     0.385050194998     0.281664191366    12.000000000000
         H            0.647403760442    -1.356456204582     0.061156640459     1.007825032230
         H            1.530020764162     0.168634188384     0.060562127268     1.007825032230
         C           -0.679180040353     0.289523012044     1.833798837372    12.000000000000
         H           -0.553333481699     1.421081178492    -0.010043572673     1.007825032230
         H           -1.479348911510    -0.068557302204    -0.149100609112     1.007825032230
         H           -0.655915615348     1.271422890606     2.272555333911     1.007825032230
         H           -1.589891352144    -0.197223914117     2.135122015346     1.007825032230
         H            0.152114682868    -0.274557564862     2.215103236052     1.007825032230

  Running in c1 symmetry.

  Rotational constants: A =      0.77998  B =      0.12008  C =      0.11278 [cm^-1]
  Rotational constants: A =  23383.13794  B =   3599.94819  C =   3381.15052 [MHz]
  Nuclear repulsion =  130.571495274358938

  Charge       = 0
  Multiplicity = 1
  Electrons    = 34
  Nalpha       = 17
  Nbeta        = 17

  ==> Algorithm <==

  SCF Algorithm Type is DIRECT.
  DIIS enabled.
  MOM disabled.
  Fractional occupation disabled.
  Guess Type is READ.
  Energy threshold   = 1.00e-08
  Density threshold  = 1.00e-08
  Integral threshold = 1.00e-08

  ==> Primary Basis <==

  -AO BASIS SET INFORMATION:
    Name                   = STO-3G
    Blend                  = STO-3G
    Total number of shells = 22
    Number of primitives   = 66
    Number of AO           = 30
    Number of SO           = 30
    Maximum AM             = 1
    Spherical Harmonics    = TRUE

  -Contraction Scheme:
    Atom   Type   All Primitives // Shells:
   ------ ------ --------------------------
       1     C     6s 3p // 2s 1p 
       2     C     6s 3p // 2s 1p 
       3     H     3s // 1s 
       4     H     3s // 1s 
       5     H     3s // 1s 
       6     C     6s 3p // 2s 1p 
       7     H     3s // 1s 
       8     H     3s // 1s 
       9     C     6s 3p // 2s 1p 
      10     H     3s // 1s 
      11     H     3s // 1s 
      12     H     3s // 1s 
      13     H     3s // 1s 
      14     H     3s // 1s 

   => Loading Basis Set <=

    Name: (STO-3G AUX)
    Role: JKFIT
    Keyword: DF_BASIS_SCF
    atoms 1-2, 6, 9       entry C          line   198 file /Users/blink/psi4conda/share/psi4/basis/def2-universal-jkfit.gbs 
    atoms 3-5, 7-8, 10-14 entry H          line    18 file /Users/blink/psi4conda/share/psi4/basis/def2-universal-jkfit.gbs 

   => Loading Basis Set <=

    Name: STO-3G
    Role: ORBITAL
    Keyword: BASIS
    atoms 1-2, 6, 9       entry C          line    61 file /Users/blink/psi4conda/share/psi4/basis/sto-3g.gbs 
    atoms 3-5, 7-8, 10-14 entry H          line    19 file /Users/blink/psi4conda/share/psi4/basis/sto-3g.gbs 

  Reading orbitals from file /tmp/butane_1.default.45068.180.npy, no projection.

  Starting with a DF guess...

  ==> Integral Setup <==

  DFHelper Memory: AOs need 0.005 GiB; user supplied 0.698 GiB. 
  Using in-core AOs.

  ==> MemDFJK: Density-Fitted J/K Matrices <==

    J tasked:                   Yes
    K tasked:                   Yes
    wK tasked:                   No
    OpenMP threads:               4
    Memory [MiB]:               715
    Algorithm:                 Core
    Schwarz Cutoff:           1E-08
    Mask sparsity (%):       0.6667
    Fitting Condition:        1E-10

   => Auxiliary Basis Set <=

  -AO BASIS SET INFORMATION:
    Name                   = (STO-3G AUX)
    Blend                  = DEF2-UNIVERSAL-JKFIT
    Total number of shells = 160
    Number of primitives   = 212
    Number of AO           = 556
    Number of SO           = 480
    Maximum AM             = 4
    Spherical Harmonics    = TRUE

  -Contraction Scheme:
    Atom   Type   All Primitives // Shells:
   ------ ------ --------------------------
       1     C     14s 10p 6d 2f 1g // 10s 8p 5d 1f 1g 
       2     C     14s 10p 6d 2f 1g // 10s 8p 5d 1f 1g 
       3     H     4s 2p 2d // 2s 2p 2d 
       4     H     4s 2p 2d // 2s 2p 2d 
       5     H     4s 2p 2d // 2s 2p 2d 
       6     C     14s 10p 6d 2f 1g // 10s 8p 5d 1f 1g 
       7     H     4s 2p 2d // 2s 2p 2d 
       8     H     4s 2p 2d // 2s 2p 2d 
       9     C     14s 10p 6d 2f 1g // 10s 8p 5d 1f 1g 
      10     H     4s 2p 2d // 2s 2p 2d 
      11     H     4s 2p 2d // 2s 2p 2d 
      12     H     4s 2p 2d // 2s 2p 2d 
      13     H     4s 2p 2d // 2s 2p 2d 
      14     H     4s 2p 2d // 2s 2p 2d 

  Minimum eigenvalue in the overlap matrix is 1.9801583598E-01.
  Reciprocal condition number of the overlap matrix is 7.5882582078E-02.
    Using symmetric orthogonalization.

  ==> Pre-Iterations <==

  SCF Guess: Orbitals guess was supplied from a previous computation.

   -------------------------------------------------------
    Irrep   Nso     Nmo     Nalpha   Nbeta   Ndocc  Nsocc
   -------------------------------------------------------
     A         30      30      17      17      17       0
   -------------------------------------------------------
    Total      30      30      17      17      17       0
   -------------------------------------------------------

  ==> Iterations <==

                           Total Energy        Delta E     RMS |[F,P]|

   @DF-RHF iter   0:  -155.20723320593393   -1.55207e+02   8.27908e-03 
   @DF-RHF iter   1:  -155.45976454040797   -2.52531e-01   1.13578e-03 DIIS/ADIIS
   @DF-RHF iter   2:  -155.46060690370518   -8.42363e-04   2.19978e-04 DIIS/ADIIS
   @DF-RHF iter   3:  -155.46063468701362   -2.77833e-05   4.45206e-05 DIIS
   @DF-RHF iter   4:  -155.46063648467813   -1.79766e-06   3.03601e-06 DIIS
   @DF-RHF iter   5:  -155.46063649382515   -9.14702e-09   6.37900e-07 DIIS
   @DF-RHF iter   6:  -155.46063649422354   -3.98387e-10   1.30156e-07 DIIS
   @DF-RHF iter   7:  -155.46063649423809   -1.45519e-11   9.96652e-09 DIIS

  DF guess converged.

  ==> DirectJK: Integral-Direct J/K Matrices <==

    J tasked:                  Yes
    K tasked:                  Yes
    wK tasked:                  No
    Integrals threads:           4
    Screening Type:           CSAM
    Screening Cutoff:        1E-08
    Incremental Fock:           No

   @RHF iter   8:  -155.46012318440236   -1.55460e+02   4.38909e-06 DIIS
   @RHF iter   9:  -155.46012319286854   -8.46617e-09   7.02689e-07 DIIS
   @RHF iter  10:  -155.46012319311384   -2.45308e-10   1.15914e-07 DIIS
   @RHF iter  11:  -155.46012319312459   -1.07434e-11   1.97466e-08 DIIS
   @RHF iter  12:  -155.46012319312510   -5.11591e-13   1.21530e-09 DIIS
  Energy and wave function converged.


  ==> Post-Iterations <==

    Orbital Energies [Eh]
    ---------------------

    Doubly Occupied:                                                      

       1A    -11.036902     2A    -11.035912     3A    -11.029983  
       4A    -11.028854     5A     -1.028796     6A     -0.943375  
       7A     -0.830866     8A     -0.761519     9A     -0.615674  
      10A     -0.556100    11A     -0.549186    12A     -0.540674  
      13A     -0.482459    14A     -0.477494    15A     -0.436333  
      16A     -0.429620    17A     -0.412047  

    Virtual:                                                              

      18A      0.597400    19A      0.629828    20A      0.638892  
      21A      0.685827    22A      0.685911    23A      0.733841  
      24A      0.754584    25A      0.770768    26A      0.784088  
      27A      0.786303    28A      0.806160    29A      0.821455  
      30A      0.865188  

    Final Occupation by Irrep:
              A 
    DOCC [    17 ]
    NA   [    17 ]
    NB   [    17 ]

  @RHF Final Energy:  -155.46012319312510

   => Energetics <=

    Nuclear Repulsion Energy =            130.5714952743589379
    One-Electron Energy =                -467.6716496982766671
    Two-Electron Energy =                 181.6400312307926299
    Total Energy =                       -155.4601231931250993

Computation Completed


Properties will be evaluated at   0.000000,   0.000000,   0.000000 [a0]

Properties computed using the SCF density matrix


 Multipole Moments:

 ------------------------------------------------------------------------------------
     Multipole            Electronic (a.u.)      Nuclear  (a.u.)        Total (a.u.)
 ------------------------------------------------------------------------------------

 L = 1.  Multiply by 2.5417464519 to convert [e a0] to [Debye]
 Dipole X            :          0.0273931           -0.0251298            0.0022633
 Dipole Y            :          0.0387005           -0.0380834            0.0006170
 Dipole Z            :          0.0100364           -0.0077251            0.0023113
 Magnitude           :                                                    0.0032932

 ------------------------------------------------------------------------------------

*** tstop() called on Barrys-MacBook-Pro.local at Thu May  9 13:23:54 2024
Module time:
	user time   =       2.98 seconds =       0.05 minutes
	system time =       0.05 seconds =       0.00 minutes
	total time  =          1 seconds =       0.02 minutes
Total time:
	user time   =       8.61 seconds =       0.14 minutes
	system time =       0.23 seconds =       0.00 minutes
	total time  =          3 seconds =       0.05 minutes

*** tstart() called on Barrys-MacBook-Pro.local
*** at Thu May  9 13:23:54 2024


         ------------------------------------------------------------
                                   SCF GRAD                          
                          Rob Parrish, Justin Turney,                
                       Andy Simmonett, and Alex Sokolov              
         ------------------------------------------------------------

  ==> Geometry <==

    Molecular point group: c1
    Full point group: C1

    Geometry (in Angstrom), charge = 0, multiplicity = 1:

       Center              X                  Y                   Z               Mass       
    ------------   -----------------  -----------------  -----------------  -----------------
         C            0.641842412530    -0.335580706168    -1.829598899957    12.000000000000
         C            0.641842412530    -0.335580706168    -0.285172059809    12.000000000000
         H            0.641842412530     0.676448060611    -2.195343490529     1.007825032230
         H            1.515860166621    -0.841281184784    -2.203541239971     1.007825032230
         H           -0.235558453660    -0.840133802601    -2.194710787440     1.007825032230
         C           -0.602253469226     0.385050194998     0.281664191366    12.000000000000
         H            0.647403760442    -1.356456204582     0.061156640459     1.007825032230
         H            1.530020764162     0.168634188384     0.060562127268     1.007825032230
         C           -0.679180040353     0.289523012044     1.833798837372    12.000000000000
         H           -0.553333481699     1.421081178492    -0.010043572673     1.007825032230
         H           -1.479348911510    -0.068557302204    -0.149100609112     1.007825032230
         H           -0.655915615348     1.271422890606     2.272555333911     1.007825032230
         H           -1.589891352144    -0.197223914117     2.135122015346     1.007825032230
         H            0.152114682868    -0.274557564862     2.215103236052     1.007825032230

  Nuclear repulsion =  130.571495274358909

  ==> Basis Set <==

  -AO BASIS SET INFORMATION:
    Name                   = STO-3G
    Blend                  = STO-3G
    Total number of shells = 22
    Number of primitives   = 66
    Number of AO           = 30
    Number of SO           = 30
    Maximum AM             = 1
    Spherical Harmonics    = TRUE

  -Contraction Scheme:
    Atom   Type   All Primitives // Shells:
   ------ ------ --------------------------
       1     C     6s 3p // 2s 1p 
       2     C     6s 3p // 2s 1p 
       3     H     3s // 1s 
       4     H     3s // 1s 
       5     H     3s // 1s 
       6     C     6s 3p // 2s 1p 
       7     H     3s // 1s 
       8     H     3s // 1s 
       9     C     6s 3p // 2s 1p 
      10     H     3s // 1s 
      11     H     3s // 1s 
      12     H     3s // 1s 
      13     H     3s // 1s 
      14     H     3s // 1s 

  ==> DirectJKGrad: Integral-Direct SCF Gradients <==

    Gradient:                    1
    J tasked:                  Yes
    K tasked:                  Yes
    wK tasked:                  No
    Integrals threads:           4
    Schwarz Cutoff:          1E-08


  -Nuclear Gradient:
     Atom            X                  Y                   Z
    ------   -----------------  -----------------  -----------------
       1       -1.168820704964     0.643641794867     5.779291442466
       2       -3.765286214242     2.079755824983    -0.891230467104
       3       -0.159336299270    -1.750497362046     1.245080015497
       4       -1.631949667386     0.941208612398     1.116766039760
       5        1.433527818501     1.006708035134     1.249129195215
       6        3.562646358931    -2.384892340207     0.731018455748
       7       -0.364760959690     2.179254080408    -0.646370470170
       8       -2.067807851958    -0.791733787294    -0.662338447004
       9        1.362532317199    -0.360457315899    -5.631139784503
      10        0.240900906939    -2.228559783377     0.543217887463
      11        2.052166351715     0.656188834919     0.796653537519
      12        0.080135911806    -1.777381775454    -1.258901821061
      13        1.738895798805     0.829329142912    -1.016835980364
      14       -1.312843766385     0.957436038655    -1.354339603463


  -Core Hamiltonian Gradient:
     Atom            X                  Y                   Z
    ------   -----------------  -----------------  -----------------
       1        2.454612094655    -1.357531552024   -10.950877513345
       2        6.842488670759    -3.754374050249     1.265309216982
       3        0.310412063479     5.043136492639    -2.962573773088
       4        4.492425866628    -2.594101894921    -2.720807365453
       5       -4.212742357192    -2.776211002586    -2.968843315470
       6       -6.546460639384     4.356364604367    -0.834462444347
       7        0.651515985184    -6.057244248398     1.844806403189
       8        5.564600067388     2.499932119701     1.854047637269
       9       -2.803334935806     0.825456314260    10.626754520414
      10       -0.283204738911     6.172290151040    -1.552174785893
      11       -5.509355378716    -2.167402790494    -2.320963518994
      12       -0.118752699128     4.972554271407     3.100365643966
      13       -4.787071099179    -2.363401079385     2.417907765744
      14        3.944867100224    -2.799467335358     3.201511529027


  -Overlap Gradient:
     Atom            X                  Y                   Z
    ------   -----------------  -----------------  -----------------
       1       -0.000972938146     0.000672763391    -0.039656104133
       2        0.033000194290    -0.018904564892     0.021274563185
       3        0.000113332676    -0.162401666489     0.058354026080
       4       -0.140241380563     0.081165181530     0.060932189318
       5        0.140890823752     0.080852170822     0.058184076368
       6       -0.027686636976     0.020342466479    -0.029824232647
       7        0.000201221623     0.163606988156    -0.055132311080
       8       -0.141866669196    -0.081976153373    -0.054509643966
       9       -0.001923719295    -0.002870281335     0.045392446337
      10       -0.009937972713    -0.166207312751     0.046853522081
      11        0.139658152106     0.074325579481     0.069819299292
      12       -0.003719454837    -0.157566891519    -0.071374831798
      13        0.146257937344     0.078251718743    -0.049320921817
      14       -0.133772890064     0.090710001755    -0.060992077221


  -Coulomb Gradient:
     Atom            X                  Y                   Z
    ------   -----------------  -----------------  -----------------
       1       -1.288347345787     0.715100052177     5.133171642623
       2       -3.046404131560     1.656576306413    -0.349319194590
       3       -0.151085285143    -3.444262104314     1.774235601700
       4       -2.990905249945     1.728353764092     1.661317486611
       5        2.910717055934     1.845182373772     1.776445249797
       6        2.955755439386    -1.950897720220     0.067981437634
       7       -0.289266291052     4.029500750454    -1.250656390088
       8       -3.629242348377    -1.781332039901    -1.244085336325
       9        1.440300829349    -0.469362521327    -4.947635765890
      10        0.037056831236    -4.097882544795     1.053652289311
      11        3.588625721747     1.576916147027     1.589316248760
      12        0.035214151647    -3.342345952014    -1.909164922036
      13        3.184885723490     1.607203324934    -1.448155896437
      14       -2.757305100925     1.927250163702    -1.907102451070


  -Exchange Gradient:
     Atom            X                  Y                   Z
    ------   -----------------  -----------------  -----------------
       1        0.002855710282    -0.001964960502     0.063220269670
       2       -0.052965617919     0.030431437720    -0.032407444063
       3        0.000120895711     0.306669783519    -0.109709584266
       4        0.264473361876    -0.153082854264    -0.114023686624
       5       -0.265901075489    -0.152980046907    -0.109526243125
       6        0.042865375142    -0.031912960988     0.051804443629
       7       -0.001296068307    -0.307572172481     0.102126929736
       8        0.266082249190     0.155032880988     0.100990959222
       9        0.003115395061     0.004821509220    -0.077007920159
      10        0.019818540524     0.312479618149    -0.086497624978
      11       -0.262277712805    -0.140886237367    -0.129818003936
      12        0.006986425759     0.297855393953     0.133661104242
      13       -0.276358184711    -0.147689119892     0.091984505241
      14        0.252480705685    -0.171202271149     0.115202295410


  -Total Gradient:
     Atom            X                  Y                   Z
    ------   -----------------  -----------------  -----------------
       1       -0.000673183959    -0.000081902091    -0.014850262719
       2        0.010832901327    -0.006515046024     0.013626674411
       3        0.000224707453    -0.007354856689     0.005386285922
       4       -0.006197069391     0.003542808835     0.004184663612
       5        0.006492265507     0.003551530236     0.005388962785
       6       -0.012880102901     0.009004049432    -0.013482339984
       7       -0.003606112242     0.007545398139    -0.005225838413
       8       -0.008234552954    -0.000076979879    -0.005894830803
       9        0.000689886507    -0.002412295081     0.016363496200
      10        0.004633567074    -0.007879871733     0.005051287985
      11        0.008817134046    -0.000858466434     0.005007562641
      12       -0.000135664752    -0.006884953627    -0.005414826687
      13        0.006610175748     0.003693987312    -0.004420527634
      14       -0.006573951465     0.004726597606    -0.005720307317


*** tstop() called on Barrys-MacBook-Pro.local at Thu May  9 13:23:54 2024
Module time:
	user time   =       0.45 seconds =       0.01 minutes
	system time =       0.00 seconds =       0.00 minutes
	total time  =          0 seconds =       0.00 minutes
Total time:
	user time   =       9.07 seconds =       0.15 minutes
	system time =       0.23 seconds =       0.00 minutes
	total time  =          3 seconds =       0.05 minutes

    			-----------------------------------------

    			 OPTKING 3.0: for geometry optimizations 

    			     By R.A. King, Bethel University     

    			        with contributions from          

    			    A.V. Copan, J. Cayton, A. Heide      

    			-----------------------------------------

    
	                            ===> Fragment 1 <== 

	 Z (Atomic Numbers)          Masses                          Geom                  
	       6.000000            12.000000          1.21290638 -0.63415563 -3.45744084   
	       6.000000            12.000000          1.21290638 -0.63415563 -0.53889709   
	       1.000000             1.007825          1.21290638  1.27830157 -4.14859795   
	       1.000000             1.007825          2.86456056 -1.58979103 -4.16408945   
	       1.000000             1.007825         -0.44514096 -1.58762280 -4.14740231   
	       6.000000            12.000000         -1.13809411  0.72763941  0.53226818   
	       1.000000             1.007825          1.22341580 -2.56333073  0.11556930   
	       1.000000             1.007825          2.89132021  0.31867243  0.11444583   
	       6.000000            12.000000         -1.28346427  0.54711920  3.46537757   
	       1.000000             1.007825         -1.04564874  2.68545423 -0.01897960   
	       1.000000             1.007825         -2.79556429 -0.12955453 -0.28175932   
	       1.000000             1.007825         -1.23950087  2.40264105  4.29450719   
	       1.000000             1.007825         -3.00445922 -0.37269918  4.03479585   
	       1.000000             1.007825          0.28745509 -0.51883860  4.18593846   

	 - Coordinate -           - BOHR/RAD -       - ANG/DEG -
	 R(1,2)           =         2.918544           1.544427
	 R(1,3)           =         2.033517           1.076091
	 R(1,4)           =         2.034835           1.076788
	 R(1,5)           =         2.033290           1.075971
	 R(2,6)           =         2.920460           1.545441
	 R(2,7)           =         2.037192           1.078036
	 R(2,8)           =         2.037599           1.078251
	 R(6,9)           =         2.942253           1.556973
	 R(6,10)          =         2.036040           1.077426
	 R(6,11)          =         2.035836           1.077318
	 R(9,12)          =         2.032818           1.075721
	 R(9,13)          =         2.032763           1.075692
	 R(9,14)          =         2.030582           1.074538
	 B(1,2,6)         =         1.946341         111.517149
	 B(1,2,7)         =         1.897855         108.739080
	 B(1,2,8)         =         1.897205         108.701843
	 B(2,1,3)         =         1.917588         109.869725
	 B(2,1,4)         =         1.925461         110.320772
	 B(2,1,5)         =         1.917004         109.836216
	 B(2,6,9)         =         1.957140         112.135881
	 B(2,6,10)        =         1.888646         108.211447
	 B(2,6,11)        =         1.888521         108.204273
	 B(3,1,4)         =         1.900377         108.883582
	 B(3,1,5)         =         1.902526         109.006702
	 B(4,1,5)         =         1.900565         108.894360
	 B(6,2,7)         =         1.904868         109.140889
	 B(6,2,8)         =         1.904398         109.113987
	 B(6,9,12)        =         1.927869         110.458735
	 B(6,9,13)        =         1.927132         110.416533
	 B(6,9,14)        =         1.925952         110.348930
	 B(7,2,8)         =         1.913006         109.607158
	 B(9,6,10)        =         1.908312         109.338238
	 B(9,6,11)        =         1.909800         109.423502
	 B(10,6,11)       =         1.910899         109.486471
	 B(12,9,13)       =         1.893454         108.486898
	 B(12,9,14)       =         1.894100         108.523940
	 B(13,9,14)       =         1.894454         108.544215
	 D(1,2,6,9)       =         3.057443         175.178568
	 D(1,2,6,10)      =        -1.119552         -64.145587
	 D(1,2,6,11)      =         0.949480          54.401184
	 D(2,6,9,12)      =         2.084017         119.405385
	 D(2,6,9,13)      =        -2.104792        -120.595692
	 D(2,6,9,14)      =        -0.010404          -0.596097
	 D(3,1,2,6)       =         1.045781          59.918834
	 D(3,1,2,7)       =         3.147040         180.312123
	 D(3,1,2,8)       =        -1.054469         -60.416616
	 D(4,1,2,6)       =         3.141108         179.972204
	 D(4,1,2,7)       =        -1.040818         -59.634507
	 D(4,1,2,8)       =         1.040858          59.636754
	 D(5,1,2,6)       =        -1.046890         -59.982404
	 D(5,1,2,7)       =         1.054369          60.410885
	 D(5,1,2,8)       =         3.136045         179.682147
	 D(7,2,6,9)       =         0.960306          55.021473
	 D(7,2,6,10)      =         3.066497         175.697318
	 D(7,2,6,11)      =        -1.147657         -65.755911
	 D(8,2,6,9)       =        -1.129724         -64.728403
	 D(8,2,6,10)      =         0.976467          55.947442
	 D(8,2,6,11)      =         3.045499         174.494213
	 D(10,6,9,12)     =        -0.010755          -0.616231
	 D(10,6,9,13)     =         2.083621         119.382692
	 D(10,6,9,14)     =        -2.105176        -120.617713
	 D(11,6,9,12)     =        -2.103551        -120.524592
	 D(11,6,9,13)     =        -0.009175          -0.525669
	 D(11,6,9,14)     =         2.085213         119.473926


	        --- Internal Coordinate Step in ANG or DEG, aJ/ANG or AJ/DEG ---
	-------------------------------------------------------------------------------
	           Coordinate      Previous         Force          Change          New 
	           ----------      --------        ------          ------        ------
	               R(1,2)       1.54443        0.00090       -0.00201       1.54241
	               R(1,3)       1.07609        0.07207        0.00806       1.08415
	               R(1,4)       1.07679        0.06712        0.00731       1.08410
	               R(1,5)       1.07597        0.07240        0.00811       1.08408
	               R(2,6)       1.54544        0.01795        0.00162       1.54706
	               R(2,7)       1.07804        0.07285        0.00811       1.08614
	               R(2,8)       1.07825        0.07175        0.00794       1.08619
	               R(6,9)       1.55697       -0.00684       -0.00431       1.55267
	              R(6,10)       1.07743        0.07196        0.00800       1.08542
	              R(6,11)       1.07732        0.07266        0.00810       1.08542
	              R(9,12)       1.07572        0.07000        0.00777       1.08349
	              R(9,13)       1.07569        0.07008        0.00778       1.08347
	              R(9,14)       1.07454        0.07907        0.00914       1.08368
	             B(1,2,6)     111.51715        0.00007        0.65026     112.16741
	             B(1,2,7)     108.73908        0.00006        0.75006     109.48914
	             B(1,2,8)     108.70184        0.00006        0.71869     109.42053
	             B(2,1,3)     109.86973        0.00021        1.01365     110.88337
	             B(2,1,4)     110.32077        0.00007        0.18496     110.50574
	             B(2,1,5)     109.83622        0.00021        1.01273     110.84895
	             B(2,6,9)     112.13588        0.00006        0.62459     112.76047
	            B(2,6,10)     108.21145        0.00005        0.75859     108.97004
	            B(2,6,11)     108.20427        0.00006        0.84005     109.04432
	             B(3,1,4)     108.88358       -0.00015       -0.69752     108.18606
	             B(3,1,5)     109.00670       -0.00021       -0.89129     108.11542
	             B(4,1,5)     108.89436       -0.00015       -0.69524     108.19912
	             B(6,2,7)     109.14089       -0.00000        0.21033     109.35122
	             B(6,2,8)     109.11399       -0.00001        0.13876     109.25274
	            B(6,9,12)     110.45873        0.00015        0.62752     111.08625
	            B(6,9,13)     110.41653        0.00015        0.62444     111.04097
	            B(6,9,14)     110.34893        0.00020        0.87016     111.21909
	             B(7,2,8)     109.60716       -0.00018       -2.58337     107.02379
	            B(9,6,10)     109.33824        0.00001        0.24846     109.58670
	            B(9,6,11)     109.42350        0.00001        0.26386     109.68736
	           B(10,6,11)     109.48647       -0.00021       -2.88632     106.60015
	           B(12,9,13)     108.48690       -0.00016       -0.68439     107.80251
	           B(12,9,14)     108.52394       -0.00018       -0.76584     107.75810
	           B(13,9,14)     108.54422       -0.00018       -0.77044     107.77377
	           D(1,2,6,9)     175.17857        0.00003        2.12200     177.30057
	          D(1,2,6,10)     -64.14559        0.00012        3.35959     -60.78600
	          D(1,2,6,11)      54.40118       -0.00007        0.80498      55.20617
	          D(2,6,9,12)     119.40538       -0.00000       -0.06017     119.34522
	          D(2,6,9,13)    -120.59569       -0.00000       -0.09753    -120.69322
	          D(2,6,9,14)      -0.59610       -0.00000       -0.08318      -0.67928
	           D(3,1,2,6)      59.91883        0.00000       -0.09518      59.82365
	           D(3,1,2,7)     180.31212        0.00008        1.09518     181.40730
	           D(3,1,2,8)     -60.41662       -0.00007       -1.17092     -61.58754
	           D(4,1,2,6)     179.97220       -0.00000       -0.19233     179.77987
	           D(4,1,2,7)     -59.63451        0.00008        0.99803     -58.63647
	           D(4,1,2,8)      59.63675       -0.00008       -1.26807      58.36869
	           D(5,1,2,6)     -59.98240       -0.00001       -0.28756     -60.26997
	           D(5,1,2,7)      60.41089        0.00007        0.90280      61.31368
	           D(5,1,2,8)     179.68215       -0.00008       -1.36330     178.31884
	           D(7,2,6,9)      55.02147       -0.00009        0.61648      55.63795
	          D(7,2,6,10)     175.69732        0.00000        1.85407     177.55138
	          D(7,2,6,11)     -65.75591       -0.00018       -0.70054     -66.45645
	           D(8,2,6,9)     -64.72840        0.00014        3.53640     -61.19201
	          D(8,2,6,10)      55.94744        0.00023        4.77398      60.72143
	          D(8,2,6,11)     174.49421        0.00004        2.21938     176.71359
	         D(10,6,9,12)      -0.61623       -0.00012       -1.60327      -2.21951
	         D(10,6,9,13)     119.38269       -0.00012       -1.64064     117.74206
	         D(10,6,9,14)    -120.61771       -0.00012       -1.62629    -122.24401
	         D(11,6,9,12)    -120.52459        0.00012        1.60128    -118.92331
	         D(11,6,9,13)      -0.52567        0.00012        1.56392       1.03825
	         D(11,6,9,14)     119.47393        0.00012        1.57826     121.05219
	-------------------------------------------------------------------------------

	                                 ==> Convergence Check <==                                  
    
	Measures of convergence in internal coordinates in au.
    
	Criteria marked as inactive (o), active & met (*), and active & unmet ( ).

	----------------------------------------------------------------------------------------------
	   Step    Total Energy     Delta E     Max Force     RMS Force      Max Disp      RMS Disp   
	----------------------------------------------------------------------------------------------
	  Convergence Criteria     1.00e-06 *    3.00e-04 *             o    1.20e-03 *             o
	----------------------------------------------------------------------------------------------
	     2    -155.46012319   -7.97e-02      9.60e-03      3.74e-03 o    8.33e-02      2.37e-02 o  ~
	----------------------------------------------------------------------------------------------

Next Geometry in Ang 
	Fragment 1 (Ang)

	    C   0.6496484367  -0.3268662569  -1.8351017779
	    C   0.6328123842  -0.3482228030  -0.2929276835
	    H   0.6592148389   0.6913022853  -2.2074208699
	    H   1.5308064944  -0.8333602359  -2.2123155878
	    H  -0.2252980778  -0.8246899261  -2.2374384673
	    C  -0.6082150508   0.3705098474   0.2872940395
	    H   0.6485977194  -1.3768687602   0.0554245406
	    H   1.5323754367   0.1292507317   0.0847189879
	    C  -0.6737125103   0.2993875702   1.8369467558
	    H  -0.5947011791   1.4087204783  -0.0290629272
	    H  -1.5041234323  -0.0713840730  -0.1372297748
	    H  -0.6528527636   1.2906444841   2.2738901752
	    H  -1.5834705071  -0.1885318719   2.1658628636
	    H   0.1643634983  -0.2571033304   2.2398114481


    Structure for next step:
    Molecular point group: c1
    Full point group: C1

    Geometry (in Angstrom), charge = 0, multiplicity = 1:

    C       
    C             1    1.542414
    H             1    1.084150      2  110.883372
    H             1    1.084097      2  110.505735      3  119.956222
    H             1    1.084082      2  110.848946      3 -120.093622
    C             2    1.547056      1  112.167411      3   59.823653
    H             2    1.086145      1  109.489141      6  121.583652
    H             2    1.086191      1  109.420534      6 -121.411188
    C             6    1.552666      2  112.760471      1    dihedral
    H             6    1.085424      2  108.970035      9  121.913431
    H             6    1.085423      2  109.044322      9 -122.094403
    H             9    1.083487      6  111.086250     10   -2.219506
    H             9    1.083472      6  111.040975     10  117.742056
    H             9    1.083676      6  111.219092     10 -122.244007

    dihedral  =  177.3005693099


Scratch directory: /tmp/
gradient() will perform analytic gradient computation.
   => Libint2 <=

    Primary   basis highest AM E, G, H:  5, 4, 3
    Auxiliary basis highest AM E, G, H:  6, 5, 4
    Onebody   basis highest AM E, G, H:  6, 5, 4
    Solid Harmonics ordering:            Gaussian

*** tstart() called on Barrys-MacBook-Pro.local
*** at Thu May  9 13:23:54 2024

   => Loading Basis Set <=

    Name: STO-3G
    Role: ORBITAL
    Keyword: BASIS
    atoms 1-2, 6, 9       entry C          line    61 file /Users/blink/psi4conda/share/psi4/basis/sto-3g.gbs 
    atoms 3-5, 7-8, 10-14 entry H          line    19 file /Users/blink/psi4conda/share/psi4/basis/sto-3g.gbs 


         ---------------------------------------------------------
                                   SCF
               by Justin Turney, Rob Parrish, Andy Simmonett
                          and Daniel G. A. Smith
                              RHF Reference
                        4 Threads,    953 MiB Core
         ---------------------------------------------------------

  ==> Geometry <==

    Molecular point group: c1
    Full point group: C1

    Geometry (in Angstrom), charge = 0, multiplicity = 1:

       Center              X                  Y                   Z               Mass       
    ------------   -----------------  -----------------  -----------------  -----------------
         C            0.631806795877    -0.347274541783    -1.836560022126    12.000000000000
         C            0.631806795877    -0.347274541783    -0.294146169649    12.000000000000
         H            0.631806795877     0.665654998057    -2.223023409620     1.007825032230
         H            1.511561282947    -0.854305161775    -2.216320373727     1.007825032230
         H           -0.244733636907    -0.855256902791    -2.222390828220     1.007825032230
         C           -0.606742390438     0.372893969881     0.289579958571    12.000000000000
         H            0.656953742438    -1.370879733170     0.068222423453     1.007825032230
         H            1.532804805843     0.140146603592     0.067011528932     1.007825032230
         C           -0.655048881578     0.322980810014     1.840691494247    12.000000000000
         H           -0.602297363556     1.406662345476    -0.041250597170     1.007825032230
         H           -1.504787418797    -0.079584001604    -0.118980130114     1.007825032230
         H           -0.634836938272     1.320313669705     2.263614175719     1.007825032230
         H           -1.558524453772    -0.165114551254     2.186242662193     1.007825032230
         H            0.190355135271    -0.223422105317     2.242050910829     1.007825032230

  Running in c1 symmetry.

  Rotational constants: A =      0.77793  B =      0.11922  C =      0.11185 [cm^-1]
  Rotational constants: A =  23321.68431  B =   3573.98728  C =   3353.17831 [MHz]
  Nuclear repulsion =  130.067938640245700

  Charge       = 0
  Multiplicity = 1
  Electrons    = 34
  Nalpha       = 17
  Nbeta        = 17

  ==> Algorithm <==

  SCF Algorithm Type is DIRECT.
  DIIS enabled.
  MOM disabled.
  Fractional occupation disabled.
  Guess Type is READ.
  Energy threshold   = 1.00e-08
  Density threshold  = 1.00e-08
  Integral threshold = 1.00e-08

  ==> Primary Basis <==

  -AO BASIS SET INFORMATION:
    Name                   = STO-3G
    Blend                  = STO-3G
    Total number of shells = 22
    Number of primitives   = 66
    Number of AO           = 30
    Number of SO           = 30
    Maximum AM             = 1
    Spherical Harmonics    = TRUE

  -Contraction Scheme:
    Atom   Type   All Primitives // Shells:
   ------ ------ --------------------------
       1     C     6s 3p // 2s 1p 
       2     C     6s 3p // 2s 1p 
       3     H     3s // 1s 
       4     H     3s // 1s 
       5     H     3s // 1s 
       6     C     6s 3p // 2s 1p 
       7     H     3s // 1s 
       8     H     3s // 1s 
       9     C     6s 3p // 2s 1p 
      10     H     3s // 1s 
      11     H     3s // 1s 
      12     H     3s // 1s 
      13     H     3s // 1s 
      14     H     3s // 1s 

   => Loading Basis Set <=

    Name: (STO-3G AUX)
    Role: JKFIT
    Keyword: DF_BASIS_SCF
    atoms 1-2, 6, 9       entry C          line   198 file /Users/blink/psi4conda/share/psi4/basis/def2-universal-jkfit.gbs 
    atoms 3-5, 7-8, 10-14 entry H          line    18 file /Users/blink/psi4conda/share/psi4/basis/def2-universal-jkfit.gbs 

   => Loading Basis Set <=

    Name: STO-3G
    Role: ORBITAL
    Keyword: BASIS
    atoms 1-2, 6, 9       entry C          line    61 file /Users/blink/psi4conda/share/psi4/basis/sto-3g.gbs 
    atoms 3-5, 7-8, 10-14 entry H          line    19 file /Users/blink/psi4conda/share/psi4/basis/sto-3g.gbs 

  Reading orbitals from file /tmp/butane_1.default.45068.180.npy, no projection.

  Starting with a DF guess...

  ==> Integral Setup <==

  DFHelper Memory: AOs need 0.005 GiB; user supplied 0.698 GiB. 
  Using in-core AOs.

  ==> MemDFJK: Density-Fitted J/K Matrices <==

    J tasked:                   Yes
    K tasked:                   Yes
    wK tasked:                   No
    OpenMP threads:               4
    Memory [MiB]:               715
    Algorithm:                 Core
    Schwarz Cutoff:           1E-08
    Mask sparsity (%):       0.6667
    Fitting Condition:        1E-10

   => Auxiliary Basis Set <=

  -AO BASIS SET INFORMATION:
    Name                   = (STO-3G AUX)
    Blend                  = DEF2-UNIVERSAL-JKFIT
    Total number of shells = 160
    Number of primitives   = 212
    Number of AO           = 556
    Number of SO           = 480
    Maximum AM             = 4
    Spherical Harmonics    = TRUE

  -Contraction Scheme:
    Atom   Type   All Primitives // Shells:
   ------ ------ --------------------------
       1     C     14s 10p 6d 2f 1g // 10s 8p 5d 1f 1g 
       2     C     14s 10p 6d 2f 1g // 10s 8p 5d 1f 1g 
       3     H     4s 2p 2d // 2s 2p 2d 
       4     H     4s 2p 2d // 2s 2p 2d 
       5     H     4s 2p 2d // 2s 2p 2d 
       6     C     14s 10p 6d 2f 1g // 10s 8p 5d 1f 1g 
       7     H     4s 2p 2d // 2s 2p 2d 
       8     H     4s 2p 2d // 2s 2p 2d 
       9     C     14s 10p 6d 2f 1g // 10s 8p 5d 1f 1g 
      10     H     4s 2p 2d // 2s 2p 2d 
      11     H     4s 2p 2d // 2s 2p 2d 
      12     H     4s 2p 2d // 2s 2p 2d 
      13     H     4s 2p 2d // 2s 2p 2d 
      14     H     4s 2p 2d // 2s 2p 2d 

  Minimum eigenvalue in the overlap matrix is 2.0109994486E-01.
  Reciprocal condition number of the overlap matrix is 7.7662871514E-02.
    Using symmetric orthogonalization.

  ==> Pre-Iterations <==

  SCF Guess: Orbitals guess was supplied from a previous computation.

   -------------------------------------------------------
    Irrep   Nso     Nmo     Nalpha   Nbeta   Ndocc  Nsocc
   -------------------------------------------------------
     A         30      30      17      17      17       0
   -------------------------------------------------------
    Total      30      30      17      17      17       0
   -------------------------------------------------------

  ==> Iterations <==

                           Total Energy        Delta E     RMS |[F,P]|

   @DF-RHF iter   0:  -155.43586783904803   -1.55436e+02   1.64223e-03 
   @DF-RHF iter   1:  -155.46212512816163   -2.62573e-02   2.56932e-04 DIIS/ADIIS
   @DF-RHF iter   2:  -155.46218520014546   -6.00720e-05   7.60373e-05 DIIS
   @DF-RHF iter   3:  -155.46219100220000   -5.80205e-06   8.47235e-06 DIIS
   @DF-RHF iter   4:  -155.46219105212316   -4.99232e-08   8.19835e-07 DIIS
   @DF-RHF iter   5:  -155.46219105276725   -6.44093e-10   1.54717e-07 DIIS
   @DF-RHF iter   6:  -155.46219105278806   -2.08047e-11   2.37979e-08 DIIS
   @DF-RHF iter   7:  -155.46219105278851   -4.54747e-13   3.20052e-09 DIIS

  DF guess converged.

  ==> DirectJK: Integral-Direct J/K Matrices <==

    J tasked:                  Yes
    K tasked:                  Yes
[...]
        Angle 2-7-11:   59.349
        Angle 2-7-12:   63.140
        Angle 2-7-13:   67.233
        Angle 2-7-14:   89.939
        Angle 3-7-4:   35.033
        Angle 3-7-5:   35.019
        Angle 3-7-6:   62.485
        Angle 3-7-8:   55.065
        Angle 3-7-9:   93.077
        Angle 3-7-10:   50.306
        Angle 3-7-11:   67.729
        Angle 3-7-12:   91.929
        Angle 3-7-13:   91.339
        Angle 3-7-14:  115.327
        Angle 4-7-5:   41.167
        Angle 4-7-6:   97.468
        Angle 4-7-8:   69.429
        Angle 4-7-9:  127.418
        Angle 4-7-10:   85.252
        Angle 4-7-11:   98.315
        Angle 4-7-12:  121.475
        Angle 4-7-13:  126.318
        Angle 4-7-14:  150.156
        Angle 5-7-6:   73.723
        Angle 5-7-8:   90.083
        Angle 5-7-9:  106.581
        Angle 5-7-10:   67.786
        Angle 5-7-11:   62.459
        Angle 5-7-12:  115.623
        Angle 5-7-13:  100.984
        Angle 5-7-14:  121.381
        Angle 6-7-8:   66.122
        Angle 6-7-9:   33.361
        Angle 6-7-10:   13.892
        Angle 6-7-11:   25.648
        Angle 6-7-12:   43.858
        Angle 6-7-13:   29.478
        Angle 6-7-14:   53.410
        Angle 8-7-9:   71.682
        Angle 8-7-10:   55.040
        Angle 8-7-11:   89.999
        Angle 8-7-12:   55.996
        Angle 8-7-13:   76.608
        Angle 8-7-14:   90.082
        Angle 9-7-10:   43.096
        Angle 9-7-11:   47.840
        Angle 9-7-12:   20.002
        Angle 9-7-13:    7.727
        Angle 9-7-14:   22.925
        Angle 10-7-11:   34.959
        Angle 10-7-12:   47.837
        Angle 10-7-13:   41.066
        Angle 10-7-14:   65.021
        Angle 11-7-12:   64.659
        Angle 11-7-13:   40.713
        Angle 11-7-14:   58.922
        Angle 12-7-13:   27.519
        Angle 12-7-14:   34.085
        Angle 13-7-14:   24.050
        Angle 1-8-2:   42.304
        Angle 1-8-3:   25.467
        Angle 1-8-4:   25.752
        Angle 1-8-5:   13.407
        Angle 1-8-6:   72.771
        Angle 1-8-7:   66.093
        Angle 1-8-9:  104.869
        Angle 1-8-10:   72.916
        Angle 1-8-11:   61.770
        Angle 1-8-12:  126.180
        Angle 1-8-13:  102.197
        Angle 1-8-14:  105.206
        Angle 2-8-3:   59.698
        Angle 2-8-4:   60.604
        Angle 2-8-5:   28.909
        Angle 2-8-6:   42.394
        Angle 2-8-7:   36.434
        Angle 2-8-9:   67.016
        Angle 2-8-10:   59.351
        Angle 2-8-11:   28.502
        Angle 2-8-12:   89.940
        Angle 2-8-13:   67.230
        Angle 2-8-14:   63.143
        Angle 3-8-4:   41.167
        Angle 3-8-5:   35.019
        Angle 3-8-6:   73.732
        Angle 3-8-7:   90.090
        Angle 3-8-9:  106.590
        Angle 3-8-10:   62.469
        Angle 3-8-11:   67.792
        Angle 3-8-12:  121.382
        Angle 3-8-13:  100.991
        Angle 3-8-14:  115.635
        Angle 4-8-5:   35.033
        Angle 4-8-6:   97.465
        Angle 4-8-7:   69.423
        Angle 4-8-9:  127.415
        Angle 4-8-10:   98.318
        Angle 4-8-11:   85.247
        Angle 4-8-12:  150.152
        Angle 4-8-13:  126.313
        Angle 4-8-14:  121.472
        Angle 5-8-6:   62.481
        Angle 5-8-7:   55.071
        Angle 5-8-9:   93.076
        Angle 5-8-10:   67.725
        Angle 5-8-11:   50.301
        Angle 5-8-12:  115.324
        Angle 5-8-13:   91.334
        Angle 5-8-14:   91.933
        Angle 6-8-7:   66.121
        Angle 6-8-9:   33.361
        Angle 6-8-10:   25.649
        Angle 6-8-11:   13.892
        Angle 6-8-12:   53.409
        Angle 6-8-13:   29.477
        Angle 6-8-14:   43.862
        Angle 7-8-9:   71.683
        Angle 7-8-10:   90.000
        Angle 7-8-11:   55.042
        Angle 7-8-12:   90.086
        Angle 7-8-13:   76.604
        Angle 7-8-14:   55.997
        Angle 9-8-10:   47.837
        Angle 9-8-11:   43.099
        Angle 9-8-12:   22.925
        Angle 9-8-13:    7.724
        Angle 9-8-14:   20.005
        Angle 10-8-11:   34.958
        Angle 10-8-12:   58.914
        Angle 10-8-13:   40.711
        Angle 10-8-14:   64.661
        Angle 11-8-12:   65.023
        Angle 11-8-13:   41.066
        Angle 11-8-14:   47.843
        Angle 12-8-13:   24.051
        Angle 12-8-14:   34.089
        Angle 13-8-14:   27.518
        Angle 1-9-2:   12.575
        Angle 1-9-3:   14.601
        Angle 1-9-4:    9.838
        Angle 1-9-5:   14.602
        Angle 1-9-6:   21.247
        Angle 1-9-7:   32.011
        Angle 1-9-8:   32.010
        Angle 1-9-10:   43.121
        Angle 1-9-11:   43.121
        Angle 1-9-12:   99.252
        Angle 1-9-13:  131.859
        Angle 1-9-14:   99.242
        Angle 2-9-3:   24.059
        Angle 2-9-4:    2.737
        Angle 2-9-5:   24.061
        Angle 2-9-6:   33.822
        Angle 2-9-7:   22.994
        Angle 2-9-8:   22.995
        Angle 2-9-10:   53.661
        Angle 2-9-11:   53.660
        Angle 2-9-12:   91.956
        Angle 2-9-13:  144.434
        Angle 2-9-14:   91.942
        Angle 3-9-4:   21.743
        Angle 3-9-5:   23.877
        Angle 3-9-6:   17.423
        Angle 3-9-7:   46.049
        Angle 3-9-8:   34.503
        Angle 3-9-10:   29.602
        Angle 3-9-11:   45.429
        Angle 3-9-12:   93.971
        Angle 3-9-13:  122.581
        Angle 3-9-14:  113.843
        Angle 4-9-5:   21.743
        Angle 4-9-6:   31.085
        Angle 4-9-7:   24.712
        Angle 4-9-8:   24.714
        Angle 4-9-10:   51.309
        Angle 4-9-11:   51.307
        Angle 4-9-12:   93.559
        Angle 4-9-13:  141.697
        Angle 4-9-14:   93.543
        Angle 5-9-6:   17.415
        Angle 5-9-7:   34.508
        Angle 5-9-8:   46.049
        Angle 5-9-10:   45.425
        Angle 5-9-11:   29.600
        Angle 5-9-12:  113.853
        Angle 5-9-13:  122.573
        Angle 5-9-14:   93.969
        Angle 6-9-7:   50.533
        Angle 6-9-8:   50.534
        Angle 6-9-10:   28.387
        Angle 6-9-11:   28.383
        Angle 6-9-12:  110.748
        Angle 6-9-13:  110.612
        Angle 6-9-14:  110.739
        Angle 7-9-8:   36.635
        Angle 7-9-10:   75.132
        Angle 7-9-11:   59.247
        Angle 7-9-12:   98.636
        Angle 7-9-13:  152.092
        Angle 7-9-14:   68.949
        Angle 8-9-10:   59.246
        Angle 8-9-11:   75.131
        Angle 8-9-12:   68.963
        Angle 8-9-13:  152.105
        Angle 8-9-14:   98.618
        Angle 10-9-11:   47.816
        Angle 10-9-12:   95.711
        Angle 10-9-13:   94.427
        Angle 10-9-14:  139.113
        Angle 11-9-12:  139.117
        Angle 11-9-13:   94.419
        Angle 11-9-14:   95.716
        Angle 12-9-13:  108.234
        Angle 12-9-14:  108.175
        Angle 13-9-14:  108.236
        Angle 1-10-2:   33.362
        Angle 1-10-3:   22.925
        Angle 1-10-4:    7.725
        Angle 1-10-5:   20.005
        Angle 1-10-6:   67.014
        Angle 1-10-7:   43.099
        Angle 1-10-8:   47.839
        Angle 1-10-9:  104.871
        Angle 1-10-11:   71.681
        Angle 1-10-12:  106.592
        Angle 1-10-13:  127.418
        Angle 1-10-14:   93.076
        Angle 2-10-3:   53.409
        Angle 2-10-4:   29.475
        Angle 2-10-5:   43.863
        Angle 2-10-6:   42.394
        Angle 2-10-7:   13.892
        Angle 2-10-8:   25.649
        Angle 2-10-9:   72.773
        Angle 2-10-11:   66.123
        Angle 2-10-12:   73.734
        Angle 2-10-13:   97.467
        Angle 2-10-14:   62.482
        Angle 3-10-4:   24.052
        Angle 3-10-5:   34.088
        Angle 3-10-6:   89.938
        Angle 3-10-7:   65.022
        Angle 3-10-8:   58.916
        Angle 3-10-9:  126.181
        Angle 3-10-11:   90.084
        Angle 3-10-12:  121.384
        Angle 3-10-13:  150.154
        Angle 3-10-14:  115.324
        Angle 4-10-5:   27.518
        Angle 4-10-6:   67.228
        Angle 4-10-7:   41.064
        Angle 4-10-8:   40.712
        Angle 4-10-9:  102.197
        Angle 4-10-11:   76.603
        Angle 4-10-12:  100.992
        Angle 4-10-13:  126.313
        Angle 4-10-14:   91.333
        Angle 5-10-6:   63.142
        Angle 5-10-7:   47.844
        Angle 5-10-8:   64.662
        Angle 5-10-9:  105.208
        Angle 5-10-11:   55.996
        Angle 5-10-12:  115.638
        Angle 5-10-13:  121.474
        Angle 5-10-14:   91.934
        Angle 6-10-7:   28.502
        Angle 6-10-8:   59.351
        Angle 6-10-9:   42.307
        Angle 6-10-11:   36.436
        Angle 6-10-12:   59.701
        Angle 6-10-13:   60.607
        Angle 6-10-14:   28.911
        Angle 7-10-8:   34.960
        Angle 7-10-9:   61.772
        Angle 7-10-11:   55.042
        Angle 7-10-12:   67.794
        Angle 7-10-13:   85.249
        Angle 7-10-14:   50.302
        Angle 8-10-9:   72.917
        Angle 8-10-11:   90.002
        Angle 8-10-12:   62.469
        Angle 8-10-13:   98.319
        Angle 8-10-14:   67.726
        Angle 9-10-11:   66.096
        Angle 9-10-12:   25.468
        Angle 9-10-13:   25.752
        Angle 9-10-14:   13.409
        Angle 11-10-12:   90.094
        Angle 11-10-13:   69.427
        Angle 11-10-14:   55.074
        Angle 12-10-13:   41.167
        Angle 12-10-14:   35.021
        Angle 13-10-14:   35.034
        Angle 1-11-2:   33.363
        Angle 1-11-3:   20.003
        Angle 1-11-4:    7.728
        Angle 1-11-5:   22.925
        Angle 1-11-6:   67.016
        Angle 1-11-7:   47.840
        Angle 1-11-8:   43.098
        Angle 1-11-9:  104.868
        Angle 1-11-10:   71.684
        Angle 1-11-12:   93.078
        Angle 1-11-13:  127.419
        Angle 1-11-14:  106.581
        Angle 2-11-3:   43.860
        Angle 2-11-4:   29.478
        Angle 2-11-5:   53.412
        Angle 2-11-6:   42.393
        Angle 2-11-7:   25.648
        Angle 2-11-8:   13.892
        Angle 2-11-9:   72.770
        Angle 2-11-10:   66.122
        Angle 2-11-12:   62.485
        Angle 2-11-13:   97.466
        Angle 2-11-14:   73.722
        Angle 3-11-4:   27.520
        Angle 3-11-5:   34.086
        Angle 3-11-6:   63.142
        Angle 3-11-7:   64.660
        Angle 3-11-8:   47.838
        Angle 3-11-9:  105.201
        Angle 3-11-10:   55.999
        Angle 3-11-12:   91.930
        Angle 3-11-13:  121.475
        Angle 3-11-14:  115.622
        Angle 4-11-5:   24.052
        Angle 4-11-6:   67.233
        Angle 4-11-7:   40.712
        Angle 4-11-8:   41.067
        Angle 4-11-9:  102.197
        Angle 4-11-10:   76.610
        Angle 4-11-12:   91.339
        Angle 4-11-13:  126.317
        Angle 4-11-14:  100.982
        Angle 5-11-6:   89.941
        Angle 5-11-7:   58.922
        Angle 5-11-8:   65.024
        Angle 5-11-9:  126.182
        Angle 5-11-10:   90.085
        Angle 5-11-12:  115.329
        Angle 5-11-13:  150.157
        Angle 5-11-14:  121.381
        Angle 6-11-7:   59.347
        Angle 6-11-8:   28.501
        Angle 6-11-9:   42.299
        Angle 6-11-10:   36.435
        Angle 6-11-12:   28.905
        Angle 6-11-13:   60.606
        Angle 6-11-14:   59.685
        Angle 7-11-8:   34.959
        Angle 7-11-9:   72.913
        Angle 7-11-10:   89.999
        Angle 7-11-12:   67.730
        Angle 7-11-13:   98.314
        Angle 7-11-14:   62.459
        Angle 8-11-9:   61.770
        Angle 8-11-10:   55.039
        Angle 8-11-12:   50.305
        Angle 8-11-13:   85.250
        Angle 8-11-14:   67.784
        Angle 9-11-10:   66.087
        Angle 9-11-12:   13.407
        Angle 9-11-13:   25.752
        Angle 9-11-14:   25.465
        Angle 10-11-12:   55.062
        Angle 10-11-13:   69.427
        Angle 10-11-14:   90.080
        Angle 12-11-13:   35.032
        Angle 12-11-14:   35.018
        Angle 13-11-14:   41.166
        Angle 1-12-2:    9.420
        Angle 1-12-3:   14.056
        Angle 1-12-4:   10.714
        Angle 1-12-5:   11.955
        Angle 1-12-6:   28.708
        Angle 1-12-7:   29.369
        Angle 1-12-8:   24.218
        Angle 1-12-9:   66.147
        Angle 1-12-10:   38.907
        Angle 1-12-11:   40.873
        Angle 1-12-13:   94.745
        Angle 1-12-14:   78.056
        Angle 2-12-3:   23.273
        Angle 2-12-4:    8.573
        Angle 2-12-5:   14.299
        Angle 2-12-6:   32.945
        Angle 2-12-7:   20.145
        Angle 2-12-8:   22.709
        Angle 2-12-9:   65.404
        Angle 2-12-10:   47.440
        Angle 2-12-11:   42.883
        Angle 2-12-13:   97.209
        Angle 2-12-14:   71.815
        Angle 3-12-4:   20.879
        Angle 3-12-5:   21.522
        Angle 3-12-6:   30.777
        Angle 3-12-7:   43.380
        Angle 3-12-8:   28.749
        Angle 3-12-9:   71.973
        Angle 3-12-10:   29.868
        Angle 3-12-11:   44.690
        Angle 3-12-13:   94.518
        Angle 3-12-14:   89.997
        Angle 4-12-5:   20.814
        Angle 4-12-6:   38.908
        Angle 4-12-7:   25.580
        Angle 4-12-8:   14.594
        Angle 4-12-9:   73.721
        Angle 4-12-10:   48.932
        Angle 4-12-11:   50.156
        Angle 4-12-13:  104.488
        Angle 4-12-14:   79.698
        Angle 5-12-6:   18.646
        Angle 5-12-7:   28.203
        Angle 5-12-8:   35.301
        Angle 5-12-9:   54.192
        Angle 5-12-10:   36.166
        Angle 5-12-11:   29.372
        Angle 5-12-13:   83.674
        Angle 5-12-14:   68.474
        Angle 6-12-7:   43.512
        Angle 6-12-8:   52.925
        Angle 6-12-9:   41.447
        Angle 6-12-10:   25.574
        Angle 6-12-11:   13.985
        Angle 6-12-13:   66.102
        Angle 6-12-14:   66.168
        Angle 7-12-8:   33.917
        Angle 7-12-9:   61.362
        Angle 7-12-10:   64.369
        Angle 7-12-11:   47.611
        Angle 7-12-13:   96.981
        Angle 7-12-14:   55.988
        Angle 8-12-9:   88.112
        Angle 8-12-10:   58.617
        Angle 8-12-11:   64.673
        Angle 8-12-13:  118.890
        Angle 8-12-14:   89.906
        Angle 9-12-10:   58.821
        Angle 9-12-11:   27.476
        Angle 9-12-13:   35.883
        Angle 9-12-14:   35.913
        Angle 10-12-11:   34.844
        Angle 10-12-13:   68.778
        Angle 10-12-14:   89.912
        Angle 11-12-13:   54.380
        Angle 11-12-14:   55.069
        Angle 13-12-14:   60.013
        Angle 1-13-2:   13.118
        Angle 1-13-3:   12.720
        Angle 1-13-4:    6.872
        Angle 1-13-5:   12.721
        Angle 1-13-6:    3.228
        Angle 1-13-7:   26.496
        Angle 1-13-8:   26.495
        Angle 1-13-9:   38.304
        Angle 1-13-10:   27.870
        Angle 1-13-11:   27.869
        Angle 1-13-12:   63.513
        Angle 1-13-14:   63.507
        Angle 2-13-3:   22.956
        Angle 2-13-4:    6.246
        Angle 2-13-5:   22.958
        Angle 2-13-6:   16.346
        Angle 2-13-7:   16.635
        Angle 2-13-8:   16.635
        Angle 2-13-9:   25.186
        Angle 2-13-10:   37.722
        Angle 2-13-11:   37.722
        Angle 2-13-12:   52.926
        Angle 2-13-14:   52.918
        Angle 3-13-4:   17.626
        Angle 3-13-5:   20.586
        Angle 3-13-6:   11.141
        Angle 3-13-7:   38.505
        Angle 3-13-8:   30.077
        Angle 3-13-9:   46.705
        Angle 3-13-10:   15.253
        Angle 3-13-11:   32.945
        Angle 3-13-12:   64.603
        Angle 3-13-14:   75.503
        Angle 4-13-5:   17.626
        Angle 4-13-6:   10.099
        Angle 4-13-7:   20.906
        Angle 4-13-8:   20.909
        Angle 4-13-9:   31.433
        Angle 4-13-10:   32.778
        Angle 4-13-11:   32.775
        Angle 4-13-12:   57.886
        Angle 4-13-14:   57.877
        Angle 5-13-6:   11.142
        Angle 5-13-7:   30.082
        Angle 5-13-8:   38.506
        Angle 5-13-9:   46.712
        Angle 5-13-10:   32.944
        Angle 5-13-11:   15.251
        Angle 5-13-12:   75.512
        Angle 5-13-14:   64.606
        Angle 6-13-7:   29.299
        Angle 6-13-8:   29.298
        Angle 6-13-9:   41.532
        Angle 6-13-10:   25.845
        Angle 6-13-11:   25.845
        Angle 6-13-12:   66.203
        Angle 6-13-14:   66.199
        Angle 7-13-8:   26.788
        Angle 7-13-9:   20.181
        Angle 7-13-10:   53.685
        Angle 7-13-11:   40.973
        Angle 7-13-12:   55.500
        Angle 7-13-14:   37.052
        Angle 8-13-9:   20.171
        Angle 8-13-10:   40.970
        Angle 8-13-11:   53.684
        Angle 8-13-12:   37.059
        Angle 8-13-14:   55.488
        Angle 9-13-10:   59.821
        Angle 9-13-11:   59.829
        Angle 9-13-12:   35.883
        Angle 9-13-14:   35.882
        Angle 10-13-11:   41.146
        Angle 10-13-12:   70.055
        Angle 10-13-14:   90.581
        Angle 11-13-12:   90.588
        Angle 11-13-14:   70.061
        Angle 12-13-14:   59.975
        Angle 1-14-2:    9.417
        Angle 1-14-3:   11.955
        Angle 1-14-4:   10.716
        Angle 1-14-5:   14.057
        Angle 1-14-6:   28.711
        Angle 1-14-7:   24.219
        Angle 1-14-8:   29.369
        Angle 1-14-9:   66.156
        Angle 1-14-10:   40.876
        Angle 1-14-11:   38.911
        Angle 1-14-12:   78.067
        Angle 1-14-13:   94.750
        Angle 2-14-3:   14.295
        Angle 2-14-4:    8.576
        Angle 2-14-5:   23.272
        Angle 2-14-6:   32.948
        Angle 2-14-7:   22.711
        Angle 2-14-8:   20.148
        Angle 2-14-9:   65.416
        Angle 2-14-10:   42.886
        Angle 2-14-11:   47.442
        Angle 2-14-12:   71.830
        Angle 2-14-13:   97.217
        Angle 3-14-4:   20.815
        Angle 3-14-5:   21.523
        Angle 3-14-6:   18.654
        Angle 3-14-7:   35.301
        Angle 3-14-8:   28.198
        Angle 3-14-9:   54.201
        Angle 3-14-10:   29.376
        Angle 3-14-11:   36.174
        Angle 3-14-12:   68.480
        Angle 3-14-13:   83.683
        Angle 4-14-5:   20.881
        Angle 4-14-6:   38.914
        Angle 4-14-7:   14.593
        Angle 4-14-8:   25.583
        Angle 4-14-9:   73.735
        Angle 4-14-10:   50.162
        Angle 4-14-11:   48.936
        Angle 4-14-12:   79.716
        Angle 4-14-13:  104.498
        Angle 5-14-6:   30.773
        Angle 5-14-7:   28.752
        Angle 5-14-8:   43.381
        Angle 5-14-9:   71.974
        Angle 5-14-10:   44.688
        Angle 5-14-11:   29.867
        Angle 5-14-12:   90.003
        Angle 5-14-13:   94.515
        Angle 6-14-7:   52.929
        Angle 6-14-8:   43.518
        Angle 6-14-9:   41.452
        Angle 6-14-10:   13.988
        Angle 6-14-11:   25.571
        Angle 6-14-12:   66.174
        Angle 6-14-13:   66.104
        Angle 7-14-8:   33.921
        Angle 7-14-9:   88.126
        Angle 7-14-10:   64.677
        Angle 7-14-11:   58.620
        Angle 7-14-12:   89.926
        Angle 7-14-13:  118.898
        Angle 8-14-9:   61.376
        Angle 8-14-10:   47.614
        Angle 8-14-11:   64.373
        Angle 8-14-12:   56.005
        Angle 8-14-13:   96.994
        Angle 9-14-10:   27.478
        Angle 9-14-11:   58.819
        Angle 9-14-12:   35.912
        Angle 9-14-13:   35.882
        Angle 10-14-11:   34.846
        Angle 10-14-12:   55.067
        Angle 10-14-13:   54.385
        Angle 11-14-12:   89.913
        Angle 11-14-13:   68.773
        Angle 12-14-13:   60.012


    Molecular point group: c1
    Full point group: C1

    Geometry (in Angstrom), charge = 0, multiplicity = 1:

    C       
    C             1    1.541123
    H             1    1.086007      2  110.745736
    H             1    1.086015      2  110.605005      3  119.995685
    H             1    1.086008      2  110.745075      3 -120.008854
    C             2    1.544996      1  112.451029      3   60.014774
    H             2    1.088522      1  109.314659      6  121.514536
    H             2    1.088524      1  109.311244      6 -121.513487
    C             6    1.541081      2  112.452832      1    dihedral
    H             6    1.088515      2  109.245176      9  121.545777
    H             6    1.088517      2  109.246257      9 -121.561687
    H             9    1.086006      6  110.748082     10  -61.500255
    H             9    1.086014      6  110.612183     10   58.497890
    H             9    1.086009      6  110.739376     10  178.492566

    dihedral  = -179.9956969075

