
    -----------------------------------------------------------------------
          Psi4: An Open-Source Ab Initio Electronic Structure Package
                               Psi4 1.9.1 release

                         Git: Rev {} zzzzzzz 


    D. G. A. Smith, L. A. Burns, A. C. Simmonett, R. M. Parrish,
    M. C. Schieber, R. Galvelis, P. Kraus, H. Kruse, R. Di Remigio,
    A. Alenaizan, A. M. James, S. Lehtola, J. P. Misiewicz, M. Scheurer,
    R. A. Shaw, J. B. Schriber, Y. Xie, Z. L. Glick, D. A. Sirianni,
    J. S. O'Brien, J. M. Waldrop, A. Kumar, E. G. Hohenstein,
    B. P. Pritchard, B. R. Brooks, H. F. Schaefer III, A. Yu. Sokolov,
    K. Patkowski, A. E. DePrince III, U. Bozkaya, R. A. King,
    F. A. Evangelista, J. M. Turney, T. D. Crawford, C. D. Sherrill,
    J. Chem. Phys. 152(18) 184108 (2020). https://doi.org/10.1063/5.0006002

                            Additional Code Authors
    E. T. Seidl, C. L. Janssen, E. F. Valeev, M. L. Leininger,
    J. F. Gonthier, R. M. Richard, H. R. McAlexander, M. Saitow, X. Wang,
    P. Verma, M. H. Lechner, A. Jiang, S. Behnle, A. G. Heide,
    M. F. Herbst, and D. L. Poole

             Previous Authors, Complete List of Code Contributors,
                       and Citations for Specific Modules
    https://github.com/psi4/psi4/blob/master/codemeta.json
    https://github.com/psi4/psi4/graphs/contributors
    http://psicode.org/psi4manual/master/introduction.html#citing-psifour

    -----------------------------------------------------------------------


    Psi4 started on: Wednesday, 22 May 2024 03:20PM

    Process ID: 37994
    Host:       PC001.IRVING.UPEI.CA
    PSIDATADIR: /opt/anaconda3/envs/psi4fun/share/psi4
    Memory:     1.9 GiB
    Threads:    4
    
Scratch directory: /tmp/
gradient() will perform analytic gradient computation.
   => Libint2 <=

    Primary   basis highest AM E, G, H:  5, 4, 3
    Auxiliary basis highest AM E, G, H:  6, 5, 4
    Onebody   basis highest AM E, G, H:  6, 5, 4
    Solid Harmonics ordering:            Gaussian

*** tstart() called on PC001.IRVING.UPEI.CA
*** at Wed May 22 16:04:26 2024

   => Loading Basis Set <=

    Name: 6-31+G(D)
    Role: ORBITAL
    Keyword: BASIS
    atoms 1-4  entry C          line   119 file /opt/anaconda3/envs/psi4fun/share/psi4/basis/6-31pg_d_.gbs 
    atoms 5-10 entry H          line    46 file /opt/anaconda3/envs/psi4fun/share/psi4/basis/6-31pg_d_.gbs 


         ---------------------------------------------------------
                                   SCF
               by Justin Turney, Rob Parrish, Andy Simmonett
                          and Daniel G. A. Smith
                              RKS Reference
                        4 Threads,   1907 MiB Core
         ---------------------------------------------------------

  ==> Geometry <==

    Molecular point group: c2
    Full point group: C2

    Geometry (in Angstrom), charge = 0, multiplicity = 1:

       Center              X                  Y                   Z               Mass       
    ------------   -----------------  -----------------  -----------------  -----------------
         C            1.506739920633     0.367269884623    -0.491259585285    12.000000000000
         C            0.738975224269     0.000000000000     0.524126974405    12.000000000000
         C           -0.738975224269     0.000000000000     0.524126974405    12.000000000000
         C           -1.506739920633    -0.367269884623    -0.491259585285    12.000000000000
         H            2.579003130326     0.329424480078    -0.421057452491     1.007825032230
         H            1.092371748930     0.728784240016    -1.415992729030     1.007825032230
         H            1.206545301164    -0.309000414330     1.445703810048     1.007825032230
         H           -1.206545301164     0.309000414330     1.445703810048     1.007825032230
         H           -2.579003130326    -0.329424480078    -0.421057452491     1.007825032230
         H           -1.092371748930    -0.728784240016    -1.415992729030     1.007825032230

  Running in c2 symmetry.

  Rotational constants: A =      0.74109  B =      0.18513  C =      0.15283 [cm^-1]
  Rotational constants: A =  22217.36641  B =   5550.10474  C =   4581.69403 [MHz]
  Nuclear repulsion =  105.199370258364397

  Charge       = 0
  Multiplicity = 1
  Electrons    = 30
  Nalpha       = 15
  Nbeta        = 15

  ==> Algorithm <==

  SCF Algorithm Type is DF.
  DIIS enabled.
  MOM disabled.
  Fractional occupation disabled.
  Guess Type is SAD.
  Energy threshold   = 1.00e-08
  Density threshold  = 1.00e-08
  Integral threshold = 1.00e-12

  ==> Primary Basis <==

  Basis Set: 6-31+G(D)
    Blend: 6-31+G(D)
    Number of shells: 44
    Number of basis functions: 88
    Number of Cartesian functions: 88
    Spherical Harmonics?: false
    Max angular momentum: 2

  ==> DFT Potential <==

   => LibXC <=

    Version 6.2.2
    S. Lehtola, C. Steigemann, M. J.T. Oliveira, and M. A.L. Marques.,  SoftwareX 7, 1–5 (2018) (10.1016/j.softx.2017.11.002)

   => Composite Functional: B3PW91 <= 

    B3PW91 Hyb-GGA Exchange-Correlation Functional

    A. D. Becke.,  J. Chem. Phys. 98, 5648 (1993) (10.1063/1.464913)

    Deriv               =              1
    GGA                 =           TRUE
    Meta                =          FALSE

    Exchange Hybrid     =           TRUE
    MP2 Hybrid          =          FALSE

   => Exchange Functionals <=

    0.0800   Slater exchange
    0.7200         Becke 88

   => Exact (HF) Exchange <=

    0.2000               HF 

   => Correlation Functionals <=

    0.1900    Perdew & Wang
    0.8100   Perdew & Wang 91

   => LibXC Density Thresholds  <==

    XC_HYB_GGA_XC_B3PW91:  1.00E-15 

   => Molecular Quadrature <=

    Radial Scheme          =       TREUTLER
    Pruning Scheme         =           NONE
    Nuclear Scheme         =       TREUTLER

    Blocking Scheme        =         OCTREE
    BS radius alpha        =              1
    Pruning alpha          =              1
    Radial Points          =             75
    Spherical Points       =            302
    Total Points           =         216840
    Total Blocks           =           1650
    Max Points             =            256
    Max Functions          =             88
    Weights Tolerance      =       1.00E-15

   => Loading Basis Set <=

    Name: (6-31+G(D) AUX)
    Role: JKFIT
    Keyword: DF_BASIS_SCF
    atoms 1-4  entry C          line   194 file /opt/anaconda3/envs/psi4fun/share/psi4/basis/heavy-aug-cc-pvdz-jkfit.gbs 
    atoms 5-10 entry H          line   116 file /opt/anaconda3/envs/psi4fun/share/psi4/basis/heavy-aug-cc-pvdz-jkfit.gbs 

  ==> Integral Setup <==

  DFHelper Memory: AOs need 0.036 GiB; user supplied 0.901 GiB. 
  Using in-core AOs.

  ==> MemDFJK: Density-Fitted J/K Matrices <==

    J tasked:                   Yes
    K tasked:                   Yes
    wK tasked:                   No
    OpenMP threads:               4
    Memory [MiB]:               922
    Algorithm:                 Core
    Schwarz Cutoff:           1E-12
    Mask sparsity (%):       0.1550
    Fitting Condition:        1E-10

   => Auxiliary Basis Set <=

  Basis Set: (6-31+G(D) AUX)
    Blend: HEAVY-AUG-CC-PVDZ-JKFIT
    Number of shells: 166
    Number of basis functions: 554
    Number of Cartesian functions: 554
    Spherical Harmonics?: false
    Max angular momentum: 3

  Cached 100.0% of DFT collocation blocks in 0.496 [GiB].

  Minimum eigenvalue in the overlap matrix is 8.0959585939E-05.
  Reciprocal condition number of the overlap matrix is 1.0279632729E-05.
    Using symmetric orthogonalization.

  ==> Pre-Iterations <==

  SCF Guess: Superposition of Atomic Densities via on-the-fly atomic UHF (no occupation information).

   -------------------------
    Irrep   Nso     Nmo    
   -------------------------
     A         44      44 
     B         44      44 
   -------------------------
    Total      88      88
   -------------------------

  ==> Iterations <==

                           Total Energy        Delta E     RMS |[F,P]|

   @DF-RKS iter SAD:  -155.16570783901454   -1.55166e+02   0.00000e+00 
   @DF-RKS iter   1:  -155.50443061919336   -3.38723e-01   1.39028e-02 DIIS/ADIIS
   @DF-RKS iter   2:  -155.32208040485312    1.82350e-01   1.62662e-02 DIIS/ADIIS
   @DF-RKS iter   3:  -155.92010963803790   -5.98029e-01   2.07812e-03 DIIS/ADIIS
   @DF-RKS iter   4:  -155.92306604569970   -2.95641e-03   1.72177e-03 DIIS/ADIIS
   @DF-RKS iter   5:  -155.92899857847550   -5.93253e-03   1.11386e-04 DIIS/ADIIS
   @DF-RKS iter   6:  -155.92902312785455   -2.45494e-05   1.98728e-05 DIIS
   @DF-RKS iter   7:  -155.92902408360695   -9.55752e-07   2.06912e-06 DIIS
   @DF-RKS iter   8:  -155.92902409599114   -1.23842e-08   2.78735e-07 DIIS
   @DF-RKS iter   9:  -155.92902409622795   -2.36810e-10   2.51414e-08 DIIS
   @DF-RKS iter  10:  -155.92902409622980   -1.84741e-12   5.54996e-09 DIIS
  Energy and wave function converged.


  ==> Post-Iterations <==

   Electrons on quadrature grid:
      Ntotal   =   29.9999923799 ; deviation = -7.620e-06 

    Orbital Energies [Eh]
    ---------------------

    Doubly Occupied:                                                      

       1A    -10.186354     1B    -10.186046     2B    -10.174169  
       2A    -10.174164     3A     -0.815101     3B     -0.741147  
       4A     -0.625699     4B     -0.540673     5A     -0.497896  
       6A     -0.442895     5B     -0.435746     6B     -0.380104  
       7A     -0.350734     7B     -0.313286     8A     -0.248727  

    Virtual:                                                              

       8B     -0.032771     9A      0.023382    10A      0.038216  
       9B      0.042027    11A      0.044530    10B      0.057995  
      12A      0.082373    11B      0.082785    12B      0.099766  
      13A      0.102458    14A      0.116625    15A      0.125567  
      13B      0.132984    14B      0.149657    16A      0.157856  
      15B      0.164121    17A      0.186648    16B      0.188110  
      18A      0.210263    17B      0.231770    19A      0.255262  
      18B      0.257733    19B      0.275517    20A      0.325966  
      21A      0.354743    20B      0.414983    21B      0.428642  
      22A      0.569792    23A      0.633997    22B      0.660441  
      23B      0.682648    24A      0.706941    24B      0.750523  
      25A      0.751419    26A      0.775595    25B      0.827957  
      27A      0.862010    26B      0.908032    27B      0.930656  
      28A      0.947093    28B      0.995615    29A      1.005782  
      29B      1.034830    30A      1.043546    30B      1.087844  
      31A      1.172671    31B      1.204545    32B      1.217157  
      32A      1.293809    33A      1.491079    33B      1.501150  
      34B      1.536614    34A      1.638038    35B      1.757304  
      35A      1.788455    36A      1.939099    37A      1.990802  
      36B      2.028307    38A      2.127998    37B      2.148136  
      38B      2.229205    39A      2.296916    39B      2.368633  
      40A      2.466587    40B      2.527254    41A      2.624842  
      42A      2.710396    41B      2.844717    42B      3.047157  
      43A      4.205149    43B      4.249502    44A      4.265627  
      44B      4.477058  

    Final Occupation by Irrep:
              A     B 
    DOCC [     8,    7 ]
    NA   [     8,    7 ]
    NB   [     8,    7 ]

  @DF-RKS Final Energy:  -155.92902409622980

   => Energetics <=

    Nuclear Repulsion Energy =            105.1993702583643966
    One-Electron Energy =                -416.2372889274820977
    Two-Electron Energy =                 174.3731310468122331
    DFT Exchange-Correlation Energy =     -19.2642364739243490
    Empirical Dispersion Energy =           0.0000000000000000
    VV10 Nonlocal Energy =                  0.0000000000000000
    Total Energy =                       -155.9290240962297958

Computation Completed


Properties will be evaluated at   0.000000,   0.000000,   0.000000 [a0]

Properties computed using the SCF density matrix


 Multipole Moments:

 ------------------------------------------------------------------------------------
     Multipole            Electronic (a.u.)      Nuclear  (a.u.)        Total (a.u.)
 ------------------------------------------------------------------------------------

 L = 1.  Multiply by 2.5417464519 to convert [e a0] to [Debye]
 Dipole X            :          0.0000000            0.0000000            0.0000000
 Dipole Y            :          0.0000000            0.0000000            0.0000000
 Dipole Z            :          0.7775133           -0.7337506            0.0437627
 Magnitude           :                                                    0.0437627

 ------------------------------------------------------------------------------------

*** tstop() called on PC001.IRVING.UPEI.CA at Wed May 22 16:04:28 2024
Module time:
	user time   =       7.56 seconds =       0.13 minutes
	system time =       0.31 seconds =       0.01 minutes
	total time  =          2 seconds =       0.03 minutes
Total time:
	user time   =     845.16 seconds =      14.09 minutes
	system time =      30.60 seconds =       0.51 minutes
	total time  =       2649 seconds =      44.15 minutes

*** tstart() called on PC001.IRVING.UPEI.CA
*** at Wed May 22 16:04:28 2024


         ------------------------------------------------------------
                                   SCF GRAD                          
                          Rob Parrish, Justin Turney,                
                       Andy Simmonett, and Alex Sokolov              
         ------------------------------------------------------------

  ==> Geometry <==

    Molecular point group: c2
    Full point group: C2

    Geometry (in Angstrom), charge = 0, multiplicity = 1:

       Center              X                  Y                   Z               Mass       
    ------------   -----------------  -----------------  -----------------  -----------------
         C            1.506739920633     0.367269884623    -0.491259585285    12.000000000000
         C            0.738975224269     0.000000000000     0.524126974405    12.000000000000
         C           -0.738975224269     0.000000000000     0.524126974405    12.000000000000
         C           -1.506739920633    -0.367269884623    -0.491259585285    12.000000000000
         H            2.579003130326     0.329424480078    -0.421057452491     1.007825032230
         H            1.092371748930     0.728784240016    -1.415992729030     1.007825032230
         H            1.206545301164    -0.309000414330     1.445703810048     1.007825032230
         H           -1.206545301164     0.309000414330     1.445703810048     1.007825032230
         H           -2.579003130326    -0.329424480078    -0.421057452491     1.007825032230
         H           -1.092371748930    -0.728784240016    -1.415992729030     1.007825032230

  Nuclear repulsion =  105.199370258364382

  ==> Basis Set <==

  Basis Set: 6-31+G(D)
    Blend: 6-31+G(D)
    Number of shells: 44
    Number of basis functions: 88
    Number of Cartesian functions: 88
    Spherical Harmonics?: false
    Max angular momentum: 2

  ==> DFJKGrad: Density-Fitted SCF Gradients <==

    Gradient:                    1
    J tasked:                  Yes
    K tasked:                  Yes
    wK tasked:                  No
    OpenMP threads:              4
    Integrals threads:           4
    Memory [MiB]:             1430
    Schwarz Cutoff:          1E-12
    Fitting Condition:       1E-10

   => Auxiliary Basis Set <=

  Basis Set: (6-31+G(D) AUX)
    Blend: HEAVY-AUG-CC-PVDZ-JKFIT
    Number of shells: 166
    Number of basis functions: 554
    Number of Cartesian functions: 554
    Spherical Harmonics?: false
    Max angular momentum: 3

  ==> DFT Potential <==

   => LibXC <=

    Version 6.2.2
    S. Lehtola, C. Steigemann, M. J.T. Oliveira, and M. A.L. Marques.,  SoftwareX 7, 1–5 (2018) (10.1016/j.softx.2017.11.002)

   => Composite Functional: B3PW91 <= 

    B3PW91 Hyb-GGA Exchange-Correlation Functional

    A. D. Becke.,  J. Chem. Phys. 98, 5648 (1993) (10.1063/1.464913)

    Deriv               =              1
    GGA                 =           TRUE
    Meta                =          FALSE

    Exchange Hybrid     =           TRUE
    MP2 Hybrid          =          FALSE

   => Exchange Functionals <=

    0.0800   Slater exchange
    0.7200         Becke 88

   => Exact (HF) Exchange <=

    0.2000               HF 

   => Correlation Functionals <=

    0.1900    Perdew & Wang
    0.8100   Perdew & Wang 91

   => LibXC Density Thresholds  <==

    XC_HYB_GGA_XC_B3PW91:  1.00E-15 

   => Molecular Quadrature <=

    Radial Scheme          =       TREUTLER
    Pruning Scheme         =           NONE
    Nuclear Scheme         =       TREUTLER

    Blocking Scheme        =         OCTREE
    BS radius alpha        =              1
    Pruning alpha          =              1
    Radial Points          =             75
    Spherical Points       =            302
    Total Points           =         216840
    Total Blocks           =           1650
    Max Points             =            256
    Max Functions          =             88
    Weights Tolerance      =       1.00E-15


  -Total Gradient:
     Atom            X                  Y                   Z
    ------   -----------------  -----------------  -----------------
       1       -0.005216680351    -0.001808797171     0.006752548453
       2        0.018142289122     0.002447757776    -0.006002256990
       3       -0.018142289122    -0.002447757776    -0.006002256990
       4        0.005216680351     0.001808797171     0.006752548453
       5       -0.008655299479     0.000306684745    -0.000243852675
       6        0.003544213276    -0.003061046128     0.007483732772
       7       -0.003671898084     0.002007381105    -0.007988803901
       8        0.003671898084    -0.002007381105    -0.007988803901
       9        0.008655299479    -0.000306684745    -0.000243852675
      10       -0.003544213276     0.003061046128     0.007483732772


*** tstop() called on PC001.IRVING.UPEI.CA at Wed May 22 16:04:29 2024
Module time:
	user time   =       2.08 seconds =       0.03 minutes
	system time =       0.05 seconds =       0.00 minutes
	total time  =          1 seconds =       0.02 minutes
Total time:
	user time   =     847.25 seconds =      14.12 minutes
	system time =      30.65 seconds =       0.51 minutes
	total time  =       2650 seconds =      44.17 minutes

    			-----------------------------------------

    			 OPTKING 3.0: for geometry optimizations 

    			     By R.A. King, Bethel University     

    			        with contributions from          

    			    A.V. Copan, J. Cayton, A. Heide      

    			-----------------------------------------

    
	                            ===> Fragment 1 <== 

	 Z (Atomic Numbers)          Masses                          Geom                  
	       6.000000            12.000000          2.84732579  0.69403950 -0.92834607   
	       6.000000            12.000000          1.39646079  0.00000000  0.99045644   
	       6.000000            12.000000         -1.39646079  0.00000000  0.99045644   
	       6.000000            12.000000         -2.84732579 -0.69403950 -0.92834607   
	       1.000000             1.007825          4.87360959  0.62252205 -0.79568327   
	       1.000000             1.007825          2.06428343  1.37720262 -2.67583845   
	       1.000000             1.007825          2.28004018 -0.58392616  2.73198426   
	       1.000000             1.007825         -2.28004018  0.58392616  2.73198426   
	       1.000000             1.007825         -4.87360959 -0.62252205 -0.79568327   
	       1.000000             1.007825         -2.06428343 -1.37720262 -2.67583845   

	 - Coordinate -           - BOHR/RAD -       - ANG/DEG -
	 R(1,2)           =         2.503698           1.324900
	 R(1,5)           =         2.031881           1.075225
	 R(1,6)           =         2.033125           1.075883
	 R(2,3)           =         2.792922           1.477950
	 R(2,7)           =         2.038284           1.078613
	 R(3,4)           =         2.503698           1.324900
	 R(3,8)           =         2.038284           1.078613
	 R(4,9)           =         2.031881           1.075225
	 R(4,10)          =         2.033125           1.075883
	 B(1,2,3)         =         2.188898         125.414599
	 B(1,2,7)         =         2.074895         118.882712
	 B(2,1,5)         =         2.115422         121.204731
	 B(2,1,6)         =         2.127839         121.916182
	 B(2,3,4)         =         2.188898         125.414599
	 B(2,3,8)         =         2.019160         115.689364
	 B(3,2,7)         =         2.019160         115.689364
	 B(3,4,9)         =         2.115422         121.204731
	 B(3,4,10)        =         2.127839         121.916182
	 B(4,3,8)         =         2.074895         118.882712
	 B(5,1,6)         =         2.039832         116.873765
	 B(9,4,10)        =         2.039832         116.873765
	 D(1,2,3,4)       =         0.694127          39.770570
	 D(1,2,3,8)       =        -2.471014        -141.578653
	 D(2,3,4,9)       =        -3.128859        -179.270408
	 D(2,3,4,10)      =         0.027841           1.595188
	 D(3,2,1,5)       =        -3.128859        -179.270408
	 D(3,2,1,6)       =         0.027841           1.595188
	 D(4,3,2,7)       =        -2.471014        -141.578653
	 D(5,1,2,7)       =         0.036969           2.118188
	 D(6,1,2,7)       =        -3.089516        -177.016216
	 D(7,2,3,8)       =         0.647031          37.072124
	 D(8,3,4,9)       =         0.036969           2.118188
	 D(8,3,4,10)      =        -3.089516        -177.016216
	[R(1,4)[1.990,2.010]=         5.861384           3.101711


	        --- Internal Coordinate Step in ANG or DEG, aJ/ANG or AJ/DEG ---
	-------------------------------------------------------------------------------
	           Coordinate      Previous         Force          Change          New 
	           ----------      --------        ------          ------        ------
	               R(1,2)       1.32490        0.13526       -0.03146       1.29344
	               R(1,5)       1.07523        0.07133        0.01244       1.08767
	               R(1,6)       1.07588        0.07271        0.01271       1.08859
	               R(2,3)       1.47795       -0.05393       -0.14163       1.33632
	               R(2,7)       1.07861        0.07409        0.01307       1.09168
	               R(3,4)       1.32490        0.13526       -0.03146       1.29344
	               R(3,8)       1.07861        0.07409        0.01307       1.09168
	               R(4,9)       1.07523        0.07133        0.01244       1.08767
	              R(4,10)       1.07588        0.07271        0.01271       1.08859
	             B(1,2,3)     125.41460       -0.00028      -22.72902     102.68558
	             B(1,2,7)     118.88271        0.00016       11.40383     130.28655
	             B(2,1,5)     121.20473        0.00004        0.18228     121.38701
	             B(2,1,6)     121.91618       -0.00003       -0.14869     121.76749
	             B(2,3,4)     125.41460       -0.00028      -22.72902     102.68558
	             B(2,3,8)     115.68936        0.00012       11.32008     127.00945
	             B(3,2,7)     115.68936        0.00012       11.32008     127.00945
	             B(3,4,9)     121.20473        0.00004        0.18228     121.38701
	            B(3,4,10)     121.91618       -0.00003       -0.14869     121.76749
	             B(4,3,8)     118.88271        0.00016       11.40383     130.28655
	             B(5,1,6)     116.87377       -0.00001       -0.03374     116.84002
	            B(9,4,10)     116.87377       -0.00001       -0.03374     116.84002
	           D(1,2,3,4)      39.77057       -0.00008       -8.15709      31.61348
	           D(1,2,3,8)    -141.57865       -0.00006       -5.36998    -146.94863
	           D(2,3,4,9)    -179.27041        0.00002        1.63137    -177.63904
	          D(2,3,4,10)       1.59519        0.00002        1.64369       3.23888
	           D(3,2,1,5)    -179.27041        0.00002        1.63137    -177.63904
	           D(3,2,1,6)       1.59519        0.00002        1.64369       3.23888
	           D(4,3,2,7)    -141.57865       -0.00006       -5.36998    -146.94863
	           D(5,1,2,7)       2.11819       -0.00000       -1.26246       0.85573
	           D(6,1,2,7)    -177.01622       -0.00000       -1.25013    -178.26635
	           D(7,2,3,8)      37.07212       -0.00004       -2.58286      34.48926
	           D(8,3,4,9)       2.11819       -0.00000       -1.26246       0.85573
	          D(8,3,4,10)    -177.01622       -0.00000       -1.25013    -178.26635
	 [R(1,4)[1.990,2.010]       3.10171        0.00000       -1.07703       2.02468
	-------------------------------------------------------------------------------

	                                 ==> Convergence Check <==                                  
    
	Measures of convergence in internal coordinates in au.
    
	Criteria marked as inactive (o), active & met (*), and active & unmet ( ).

	----------------------------------------------------------------------------------------------
	   Step    Total Energy     Delta E     Max Force     RMS Force      Max Disp      RMS Disp   
	----------------------------------------------------------------------------------------------
	  Convergence Criteria     1.00e-06 *    3.00e-04 *             o    1.20e-03 *             o
	----------------------------------------------------------------------------------------------
	     1    -155.92902410   -1.56e+02      1.64e-02      5.67e-03 o    2.04e+00      3.73e-01 o  ~
	----------------------------------------------------------------------------------------------

Next Geometry in Ang 
	Fragment 1 (Ang)

	    C   0.9860138845   0.2293660724  -0.5108433447
	    C   0.6635236597  -0.0785721182   0.7033092687
	    C  -0.6635236597   0.0785721182   0.7033092687
	    C  -0.9860138845  -0.2293660724  -0.5108433447
	    H   2.0151911072   0.1661413528  -0.8569872120
	    H   0.2460993996   0.5766752087  -1.2298284053
	    H   1.2857090170  -0.4124864022   1.5358707109
	    H  -1.2857090170   0.4124864022   1.5358707109
	    H  -2.0151911072  -0.1661413528  -0.8569872120
	    H  -0.2460993996  -0.5766752087  -1.2298284053


    Structure for next step:
    Molecular point group: c2
    Full point group: C2

    Geometry (in Angstrom), charge = 0, multiplicity = 1:

    C       
    C             1         CC1
    C             2         CC2      1       A_321
    C             3         CC1      2       A_321      1    dihedral
    H             1      CH_5_9      2      CH_512      3          D3
    H             1     CH_6_10      5      CH_615      2          D2
    H             2      CH_7_8      1      CH_721      3          D1
    H             3      CH_7_8      4      CH_721      2          D1
    H             4      CH_5_9      3      CH_512      2          D3
    H             4     CH_6_10      9      CH_615      3          D2

    A_321     =  102.6855788405
    CC1       =    1.2934420911
    CC2       =    1.3363191605
    CH_512    =  121.3870134360
    CH_5_9    =    1.0876666298
    CH_615    =  116.8400227933
    CH_6_10   =    1.0885938629
    CH_721    =  130.2865460217
    CH_7_8    =    1.0916830689
    D1        =  178.4947673086
    D2        =  179.1634818874
    D3        = -177.6390410472
    dihedral  =   31.6134772268


Scratch directory: /tmp/
gradient() will perform analytic gradient computation.
   => Libint2 <=

    Primary   basis highest AM E, G, H:  5, 4, 3
    Auxiliary basis highest AM E, G, H:  6, 5, 4
    Onebody   basis highest AM E, G, H:  6, 5, 4
    Solid Harmonics ordering:            Gaussian

*** tstart() called on PC001.IRVING.UPEI.CA
*** at Wed May 22 16:04:29 2024

   => Loading Basis Set <=

    Name: 6-31+G(D)
    Role: ORBITAL
    Keyword: BASIS
    atoms 1-4  entry C          line   119 file /opt/anaconda3/envs/psi4fun/share/psi4/basis/6-31pg_d_.gbs 
    atoms 5-10 entry H          line    46 file /opt/anaconda3/envs/psi4fun/share/psi4/basis/6-31pg_d_.gbs 


         ---------------------------------------------------------
                                   SCF
               by Justin Turney, Rob Parrish, Andy Simmonett
                          and Daniel G. A. Smith
                              RKS Reference
                        4 Threads,   1907 MiB Core
         ---------------------------------------------------------

  ==> Geometry <==

    Molecular point group: c2
    Full point group: C2

    Geometry (in Angstrom), charge = 0, multiplicity = 1:

       Center              X                  Y                   Z               Mass       
    ------------   -----------------  -----------------  -----------------  -----------------
         C           -0.401354720133     0.929379666340    -0.575762272223    12.000000000000
         C           -0.040891057281     0.666907149566     0.638390341267    12.000000000000
         C            0.040891057281    -0.666907149566     0.638390341267    12.000000000000
         C            0.401354720133    -0.929379666340    -0.575762272223    12.000000000000
         H           -0.522488607123     1.953357059773    -0.921906139478     1.007825032230
         H           -0.611292845447     0.139428361124    -1.294747332728     1.007825032230
         H            0.176839851897     1.338626301526     1.470951783426     1.007825032230
         H           -0.176839851897    -1.338626301526     1.470951783426     1.007825032230
         H            0.522488607123    -1.953357059773    -0.921906139478     1.007825032230
         H            0.611292845447    -0.139428361124    -1.294747332728     1.007825032230

  Running in c2 symmetry.

  Rotational constants: A =      0.57556  B =      0.35106  C =      0.23058 [cm^-1]
  Rotational constants: A =  17254.87054  B =  10524.57259  C =   6912.51336 [MHz]
  Nuclear repulsion =  117.194505225386962

  Charge       = 0
  Multiplicity = 1
  Electrons    = 30
  Nalpha       = 15
  Nbeta        = 15

  ==> Algorithm <==

  SCF Algorithm Type is DF.
  DIIS enabled.
  MOM disabled.
  Fractional occupation disabled.
  Guess Type is READ.
  Energy threshold   = 1.00e-08
  Density threshold  = 1.00e-08
  Integral threshold = 1.00e-12

  ==> Primary Basis <==

  Basis Set: 6-31+G(D)
    Blend: 6-31+G(D)
    Number of shells: 44
    Number of basis functions: 88
    Number of Cartesian functions: 88
    Spherical Harmonics?: false
    Max angular momentum: 2

  ==> DFT Potential <==

   => LibXC <=

    Version 6.2.2
    S. Lehtola, C. Steigemann, M. J.T. Oliveira, and M. A.L. Marques.,  SoftwareX 7, 1–5 (2018) (10.1016/j.softx.2017.11.002)

   => Composite Functional: B3PW91 <= 

    B3PW91 Hyb-GGA Exchange-Correlation Functional

    A. D. Becke.,  J. Chem. Phys. 98, 5648 (1993) (10.1063/1.464913)

    Deriv               =              1
    GGA                 =           TRUE
    Meta                =          FALSE

    Exchange Hybrid     =           TRUE
    MP2 Hybrid          =          FALSE

   => Exchange Functionals <=

    0.0800   Slater exchange
    0.7200         Becke 88

   => Exact (HF) Exchange <=

    0.2000               HF 

   => Correlation Functionals <=

    0.1900    Perdew & Wang
    0.8100   Perdew & Wang 91

   => LibXC Density Thresholds  <==

    XC_HYB_GGA_XC_B3PW91:  1.00E-15 

   => Molecular Quadrature <=

    Radial Scheme          =       TREUTLER
    Pruning Scheme         =           NONE
    Nuclear Scheme         =       TREUTLER

    Blocking Scheme        =         OCTREE
    BS radius alpha        =              1
    Pruning alpha          =              1
    Radial Points          =             75
    Spherical Points       =            302
    Total Points           =         215072
    Total Blocks           =           1688
    Max Points             =            255
    Max Functions          =             88
    Weights Tolerance      =       1.00E-15

   => Loading Basis Set <=

    Name: (6-31+G(D) AUX)
    Role: JKFIT
    Keyword: DF_BASIS_SCF
    atoms 1-4  entry C          line   194 file /opt/anaconda3/envs/psi4fun/share/psi4/basis/heavy-aug-cc-pvdz-jkfit.gbs 
    atoms 5-10 entry H          line   116 file /opt/anaconda3/envs/psi4fun/share/psi4/basis/heavy-aug-cc-pvdz-jkfit.gbs 

   => Loading Basis Set <=

    Name: 6-31+G(D)
    Role: ORBITAL
    Keyword: BASIS
    atoms 1-4  entry C          line   119 file /opt/anaconda3/envs/psi4fun/share/psi4/basis/6-31pg_d_.gbs 
    atoms 5-10 entry H          line    46 file /opt/anaconda3/envs/psi4fun/share/psi4/basis/6-31pg_d_.gbs 

  Reading orbitals from file /tmp/cyclobutene1.default.37994.180.npy, no projection.

  ==> Integral Setup <==

  DFHelper Memory: AOs need 0.036 GiB; user supplied 0.879 GiB. 
  Using in-core AOs.

  ==> MemDFJK: Density-Fitted J/K Matrices <==

    J tasked:                   Yes
    K tasked:                   Yes
    wK tasked:                   No
    OpenMP threads:               4
    Memory [MiB]:               899
    Algorithm:                 Core
    Schwarz Cutoff:           1E-12
    Mask sparsity (%):       0.0000
    Fitting Condition:        1E-10

   => Auxiliary Basis Set <=

  Basis Set: (6-31+G(D) AUX)
    Blend: HEAVY-AUG-CC-PVDZ-JKFIT
    Number of shells: 166
    Number of basis functions: 554
    Number of Cartesian functions: 554
    Spherical Harmonics?: false
    Max angular momentum: 3

  Cached 100.0% of DFT collocation blocks in 0.518 [GiB].

  Minimum eigenvalue in the overlap matrix is 1.1089156770E-04.
  Reciprocal condition number of the overlap matrix is 1.2634036361E-05.
    Using symmetric orthogonalization.

  ==> Pre-Iterations <==

  SCF Guess: Orbitals guess was supplied from a previous computation.

   -------------------------------------------------------
    Irrep   Nso     Nmo     Nalpha   Nbeta   Ndocc  Nsocc
   -------------------------------------------------------
     A         44      44       8       8       8       0
     B         44      44       7       7       7       0
   -------------------------------------------------------
    Total      88      88      15      15      15       0
   -------------------------------------------------------

  ==> Iterations <==

                           Total Energy        Delta E     RMS |[F,P]|

   @DF-RKS iter   0:  -150.72180399862916   -1.50722e+02   3.56995e-02 
   @DF-RKS iter   1:  -154.15920735591905   -3.43740e+00   2.70186e-02 DIIS/ADIIS
   @DF-RKS iter   2:  -146.63856903664137    7.52064e+00   5.30833e-02 DIIS/ADIIS
   @DF-RKS iter   3:  -155.69110833941068   -9.05254e+00   5.81810e-03 DIIS/ADIIS
   @DF-RKS iter   4:  -155.74097913906226   -4.98708e-02   2.25922e-03 DIIS/ADIIS
   @DF-RKS iter   5:  -155.74861661218475   -7.63747e-03   1.34102e-03 DIIS/ADIIS
   @DF-RKS iter   6:  -155.75213603524838   -3.51942e-03   1.10075e-04 DIIS/ADIIS
   @DF-RKS iter   7:  -155.75215760696051   -2.15717e-05   1.55339e-05 DIIS
   @DF-RKS iter   8:  -155.75215813321785   -5.26257e-07   3.35499e-06 DIIS
   @DF-RKS iter   9:  -155.75215815676435   -2.35465e-08   3.31168e-07 DIIS
   @DF-RKS iter  10:  -155.75215815703410   -2.69750e-10   5.26646e-08 DIIS
   @DF-RKS iter  11:  -155.75215815704121   -7.10543e-12   7.53398e-09 DIIS
  Energy and wave function converged.


  ==> Post-Iterations <==

   Electrons on quadrature grid:
      Ntotal   =   29.9999845488 ; deviation = -1.545e-05 

    Orbital Energies [Eh]
    ---------------------

    Doubly Occupied:                                                      

       1A    -10.165686     1B    -10.164849     2A    -10.160469  
       2B    -10.160455     3A     -0.907895     3B     -0.701739  
       4A     -0.674501     5A     -0.526561     4B     -0.518824  
       6A     -0.489997     5B     -0.416666     6B     -0.379201  
       7A     -0.364733     7B     -0.270349     8A     -0.220193  

    Virtual:                                                              

       8B     -0.037011     9A      0.022543    10A      0.027560  
       9B      0.043978    11A      0.047876    10B      0.056737  
      12A      0.076812    11B      0.081506    13A      0.102890  
      14A      0.107326    12B      0.107811    15A      0.125578  
      13B      0.134113    14B      0.147020    16A      0.162145  
      15B      0.174299    17A      0.182564    16B      0.188959  
      18A      0.217765    17B      0.230359    18B      0.257758  
      19A      0.279952    19B      0.300257    20A      0.305969  
      21A      0.361308    20B      0.405695    21B      0.457730  
      22A      0.563485    22B      0.687041    23A      0.702890  
      24A      0.731737    23B      0.738673    24B      0.741838  
      25A      0.790791    25B      0.818076    26A      0.822557  
      26B      0.845253    27A      0.855817    27B      0.915495  
      28A      0.926632    28B      0.984740    29B      0.995844  
      29A      1.021726    30A      1.049427    30B      1.106146  
      31B      1.126185    31A      1.157228    32B      1.267405  
      32A      1.346246    33B      1.479546    33A      1.580782  
      34B      1.599748    34A      1.627448    35A      1.835181  
      35B      1.942847    36A      1.953166    36B      2.086723  
      37A      2.131774    37B      2.216406    38A      2.311066  
      38B      2.380808    39B      2.434733    39A      2.435879  
      40A      2.482585    40B      2.623327    41A      2.707370  
      42A      2.791573    41B      2.931718    42B      3.064875  
      43A      4.259061    43B      4.284050    44A      4.326369  
      44B      4.432516  

    Final Occupation by Irrep:
              A     B 
    DOCC [     8,    7 ]
    NA   [     8,    7 ]
    NB   [     8,    7 ]

  @DF-RKS Final Energy:  -155.75215815704121

   => Energetics <=

    Nuclear Repulsion Energy =            117.1945052253869619
    One-Electron Energy =                -439.7510886881135548
    Two-Electron Energy =                 186.2280780473441837
    DFT Exchange-Correlation Energy =     -19.4236527416587847
    Empirical Dispersion Energy =           0.0000000000000000
    VV10 Nonlocal Energy =                  0.0000000000000000
    Total Energy =                       -155.7521581570412081

Computation Completed


Properties will be evaluated at   0.000000,   0.000000,   0.000000 [a0]

Properties computed using the SCF density matrix


 Multipole Moments:

 ------------------------------------------------------------------------------------
     Multipole            Electronic (a.u.)      Nuclear  (a.u.)        Total (a.u.)
 ------------------------------------------------------------------------------------

 L = 1.  Multiply by 2.5417464519 to convert [e a0] to [Debye]
 Dipole X            :          0.0000000            0.0000000            0.0000000
 Dipole Y            :          0.0000000            0.0000000            0.0000000
 Dipole Z            :          1.4143431           -1.3981451            0.0161980
 Magnitude           :                                                    0.0161980

 ------------------------------------------------------------------------------------

*** tstop() called on PC001.IRVING.UPEI.CA at Wed May 22 16:04:31 2024
Module time:
	user time   =       8.20 seconds =       0.14 minutes
	system time =       0.31 seconds =       0.01 minutes
	total time  =          2 seconds =       0.03 minutes
Total time:
	user time   =     856.16 seconds =      14.27 minutes
	system time =      30.97 seconds =       0.52 minutes
	total time  =       2652 seconds =      44.20 minutes

*** tstart() called on PC001.IRVING.UPEI.CA
*** at Wed May 22 16:04:31 2024


         ------------------------------------------------------------
                                   SCF GRAD                          
                          Rob Parrish, Justin Turney,                
                       Andy Simmonett, and Alex Sokolov              
         ------------------------------------------------------------

  ==> Geometry <==

    Molecular point group: c2
    Full point group: C2

    Geometry (in Angstrom), charge = 0, multiplicity = 1:

       Center              X                  Y                   Z               Mass       
    ------------   -----------------  -----------------  -----------------  -----------------
         C           -0.401354720133     0.929379666340    -0.575762272223    12.000000000000
         C           -0.040891057281     0.666907149566     0.638390341267    12.000000000000
         C            0.040891057281    -0.666907149566     0.638390341267    12.000000000000
         C            0.401354720133    -0.929379666340    -0.575762272223    12.000000000000
         H           -0.522488607123     1.953357059773    -0.921906139478     1.007825032230
         H           -0.611292845447     0.139428361124    -1.294747332728     1.007825032230
         H            0.176839851897     1.338626301526     1.470951783426     1.007825032230
         H           -0.176839851897    -1.338626301526     1.470951783426     1.007825032230
         H            0.522488607123    -1.953357059773    -0.921906139478     1.007825032230
         H            0.611292845447    -0.139428361124    -1.294747332728     1.007825032230

  Nuclear repulsion =  117.194505225386919

  ==> Basis Set <==

  Basis Set: 6-31+G(D)
    Blend: 6-31+G(D)
    Number of shells: 44
    Number of basis functions: 88
    Number of Cartesian functions: 88
    Spherical Harmonics?: false
    Max angular momentum: 2

  ==> DFJKGrad: Density-Fitted SCF Gradients <==

    Gradient:                    1
    J tasked:                  Yes
    K tasked:                  Yes
    wK tasked:                  No
    OpenMP threads:              4
    Integrals threads:           4
    Memory [MiB]:             1430
    Schwarz Cutoff:          1E-12
    Fitting Condition:       1E-10

   => Auxiliary Basis Set <=

  Basis Set: (6-31+G(D) AUX)
    Blend: HEAVY-AUG-CC-PVDZ-JKFIT
    Number of shells: 166
    Number of basis functions: 554
    Number of Cartesian functions: 554
    Spherical Harmonics?: false
    Max angular momentum: 3

  ==> DFT Potential <==

   => LibXC <=

    Version 6.2.2
    S. Lehtola, C. Steigemann, M. J.T. Oliveira, and M. A.L. Marques.,  SoftwareX 7, 1–5 (2018) (10.1016/j.softx.2017.11.002)

   => Composite Functional: B3PW91 <= 

    B3PW91 Hyb-GGA Exchange-Correlation Functional

    A. D. Becke.,  J. Chem. Phys. 98, 5648 (1993) (10.1063/1.464913)

    Deriv               =              1
    GGA                 =           TRUE
    Meta                =          FALSE

    Exchange Hybrid     =           TRUE
    MP2 Hybrid          =          FALSE

   => Exchange Functionals <=

    0.0800   Slater exchange
    0.7200         Becke 88

   => Exact (HF) Exchange <=

    0.2000               HF 

   => Correlation Functionals <=

    0.1900    Perdew & Wang
    0.8100   Perdew & Wang 91

   => LibXC Density Thresholds  <==

    XC_HYB_GGA_XC_B3PW91:  1.00E-15 

   => Molecular Quadrature <=

    Radial Scheme          =       TREUTLER
    Pruning Scheme         =           NONE
    Nuclear Scheme         =       TREUTLER

    Blocking Scheme        =         OCTREE
    BS radius alpha        =              1
    Pruning alpha          =              1
    Radial Points          =             75
    Spherical Points       =            302
    Total Points           =         215072
    Total Blocks           =           1688
    Max Points             =            255
    Max Functions          =             88
    Weights Tolerance      =       1.00E-15


  -Total Gradient:
     Atom            X                  Y                   Z
    ------   -----------------  -----------------  -----------------
       1        0.087695521738    -0.146030446946     0.059166528055
       2        0.018787399607    -0.082981030533    -0.066495049291
       3       -0.018787399607     0.082981030533    -0.066495049291
       4       -0.087695521738     0.146030446946     0.059166528055
       5       -0.007133928447    -0.009004541376     0.007405203251
       6        0.064264459843    -0.047655852541    -0.007465893921
       7        0.004670307617    -0.002987656262     0.007387755916
       8       -0.004670307617     0.002987656262     0.007387755916
       9        0.007133928447     0.009004541376     0.007405203251
      10       -0.064264459843     0.047655852541    -0.007465893921


*** tstop() called on PC001.IRVING.UPEI.CA at Wed May 22 16:04:32 2024
Module time:
	user time   =       2.13 seconds =       0.04 minutes
	system time =       0.04 seconds =       0.00 minutes
	total time  =          1 seconds =       0.02 minutes
Total time:
	user time   =     858.30 seconds =      14.31 minutes
	system time =      31.01 seconds =       0.52 minutes
	total time  =       2653 seconds =      44.22 minutes

    			-----------------------------------------

    			 OPTKING 3.0: for geometry optimizations 

    			     By R.A. King, Bethel University     

    			        with contributions from          

    			    A.V. Copan, J. Cayton, A. Heide      

    			-----------------------------------------

    
	                            ===> Fragment 1 <== 

	 Z (Atomic Numbers)          Masses                          Geom                  
	       6.000000            12.000000         -0.75845050  1.75627304 -1.08803301   
	       6.000000            12.000000         -0.07727290  1.26027186  1.20638291   
	       6.000000            12.000000          0.07727290 -1.26027186  1.20638291   
	       6.000000            12.000000          0.75845050 -1.75627304 -1.08803301   
	       1.000000             1.007825         -0.98736037  3.69130987 -1.74215012   
	       1.000000             1.007825         -1.15517606  0.26348142 -2.44671786   
	       1.000000             1.007825          0.33417889  2.52963709  2.77969601   
	       1.000000             1.007825         -0.33417889 -2.52963709  2.77969601   
	       1.000000             1.007825          0.98736037 -3.69130987 -1.74215012   
	       1.000000             1.007825          1.15517606 -0.26348142 -2.44671786   

	 - Coordinate -           - BOHR/RAD -       - ANG/DEG -
	 R(1,2)           =         2.444251           1.293442
	 R(1,5)           =         2.055392           1.087667
	 R(1,6)           =         2.057144           1.088594
	 R(2,3)           =         2.525277           1.336319
	 R(2,7)           =         2.062982           1.091683
	 R(3,4)           =         2.444251           1.293442
	 R(3,8)           =         2.062982           1.091683
	 R(4,9)           =         2.055392           1.087667
	 R(4,10)          =         2.057144           1.088594
	 B(1,2,3)         =         1.792201         102.685579
	 B(1,2,7)         =         2.273929         130.286546
	 B(2,1,5)         =         2.118603         121.387013
	 B(2,1,6)         =         2.125244         121.767493
	 B(2,3,4)         =         1.792201         102.685579
	 B(2,3,8)         =         2.216733         127.009447
	 B(3,2,7)         =         2.216733         127.009447
	 B(3,4,9)         =         2.118603         121.387013
	 B(3,4,10)        =         2.125244         121.767493
	 B(4,3,8)         =         2.273929         130.286546
	 B(5,1,6)         =         2.039243         116.840023
	 B(9,4,10)        =         2.039243         116.840023
	 D(1,2,3,4)       =         0.551759          31.613477
	 D(1,2,3,8)       =        -2.564737        -146.948629
	 D(2,3,4,9)       =        -3.100386        -177.639041
	 D(2,3,4,10)      =         0.056529           3.238883
	 D(3,2,1,5)       =        -3.100386        -177.639041
	 D(3,2,1,6)       =         0.056529           3.238883
	 D(4,3,2,7)       =        -2.564737        -146.948629
	 D(5,1,2,7)       =         0.014935           0.855726
	 D(6,1,2,7)       =        -3.111335        -178.266350
	 D(7,2,3,8)       =         0.601951          34.489265
	 D(8,3,4,9)       =         0.014935           0.855726
	 D(8,3,4,10)      =        -3.111335        -178.266350
	[R(1,4)[1.990,2.010]=         3.826091           2.024680


	        --- Internal Coordinate Step in ANG or DEG, aJ/ANG or AJ/DEG ---
	-------------------------------------------------------------------------------
	           Coordinate      Previous         Force          Change          New 
	           ----------      --------        ------          ------        ------
	               R(1,2)       1.29344        0.49366        0.01644       1.30988
	               R(1,5)       1.08767        0.08271        0.00314       1.09081
	               R(1,6)       1.08859       -0.22343       -0.00753       1.08107
	               R(2,3)       1.33632        0.44658        0.01446       1.35078
	               R(2,7)       1.09168       -0.03895       -0.00109       1.09059
	               R(3,4)       1.29344        0.49366        0.01644       1.30988
	               R(3,8)       1.09168       -0.03895       -0.00109       1.09059
	               R(4,9)       1.08767        0.08271        0.00314       1.09081
	              R(4,10)       1.08859       -0.22343       -0.00753       1.08107
	             B(1,2,3)     102.68558       -0.00202       -1.18182     101.50376
	             B(1,2,7)     130.28655        0.00052        0.36271     130.64926
	             B(2,1,5)     121.38701       -0.00196       -0.91479     120.47222
	             B(2,1,6)     121.76749        0.00417        1.91937     123.68686
	             B(2,3,4)     102.68558       -0.00202       -1.18182     101.50376
	             B(2,3,8)     127.00945        0.00151        0.82097     127.83042
	             B(3,2,7)     127.00945        0.00151        0.82097     127.83042
	             B(3,4,9)     121.38701       -0.00196       -0.91479     120.47222
	            B(3,4,10)     121.76749        0.00417        1.91937     123.68686
	             B(4,3,8)     130.28655        0.00052        0.36271     130.64926
	             B(5,1,6)     116.84002       -0.00225       -1.04963     115.79039
	            B(9,4,10)     116.84002       -0.00225       -1.04963     115.79039
	           D(1,2,3,4)      31.61348        0.00290        1.39287      33.00635
	           D(1,2,3,8)    -146.94863        0.00267        1.31896    -145.62967
	           D(2,3,4,9)    -177.63904        0.00049        0.27199    -177.36705
	          D(2,3,4,10)       3.23888        0.00408        2.09022       5.32910
	           D(3,2,1,5)    -177.63904        0.00049        0.27199    -177.36705
	           D(3,2,1,6)       3.23888        0.00408        2.09022       5.32910
	           D(4,3,2,7)    -146.94863        0.00267        1.31896    -145.62967
	           D(5,1,2,7)       0.85573        0.00075        0.35728       1.21301
	           D(6,1,2,7)    -178.26635        0.00435        2.17551    -176.09084
	           D(7,2,3,8)      34.48926        0.00243        1.24505      35.73432
	           D(8,3,4,9)       0.85573        0.00075        0.35728       1.21301
	          D(8,3,4,10)    -178.26635        0.00435        2.17551    -176.09084
	 [R(1,4)[1.990,2.010]       2.02468        0.00000       -0.01449       2.01019
	-------------------------------------------------------------------------------

	                                 ==> Convergence Check <==                                  
    
	Measures of convergence in internal coordinates in au.
    
	Criteria marked as inactive (o), active & met (*), and active & unmet ( ).

	----------------------------------------------------------------------------------------------
	   Step    Total Energy     Delta E     Max Force     RMS Force      Max Disp      RMS Disp   
	----------------------------------------------------------------------------------------------
	  Convergence Criteria     1.00e-06 *    3.00e-04 *             o    1.20e-03 *             o
	----------------------------------------------------------------------------------------------
	     2    -155.75215816    1.77e-01      5.99e-02      3.46e-02 o    3.80e-02      2.20e-02 o  ~
	----------------------------------------------------------------------------------------------

Next Geometry in Ang 
	Fragment 1 (Ang)

	    C  -0.4117329020   0.9168907100  -0.5801968523
	    C  -0.0343107947   0.6745182295   0.6504955804
	    C   0.0343107947  -0.6745182295   0.6504955804
	    C   0.4117329020  -0.9168907100  -0.5801968523
	    H  -0.5233809485   1.9431487448  -0.9326137052
	    H  -0.6705921417   0.1446719499  -1.2910925359
	    H   0.1956491321   1.3559698435   1.4703338933
	    H  -0.1956491321  -1.3559698435   1.4703338933
	    H   0.5233809485  -1.9431487448  -0.9326137052
	    H   0.6705921417  -0.1446719499  -1.2910925359


    Structure for next step:
    Molecular point group: c2
    Full point group: C2

    Geometry (in Angstrom), charge = 0, multiplicity = 1:

    C       
    C             1         CC1
    C             2         CC2      1       A_321
    C             3         CC1      2       A_321      1    dihedral
    H             1      CH_5_9      2      CH_512      3          D3
    H             1     CH_6_10      5      CH_615      2          D2
    H             2      CH_7_8      1      CH_721      3          D1
    H             3      CH_7_8      4      CH_721      2          D1
    H             4      CH_5_9      3      CH_512      2          D3
    H             4     CH_6_10      9      CH_615      3          D2

    A_321     =  101.5037614405
    CC1       =    1.3098838613
    CC2       =    1.3507806226
    CH_512    =  120.4722202008
    CH_5_9    =    1.0908109270
    CH_615    =  115.7903882348
    CH_6_10   =    1.0810654894
    CH_721    =  130.6492591272
    CH_7_8    =    1.0905928339
    D1        =  178.5800625211
    D2        =  177.5085316590
    D3        = -177.3670516069
    dihedral  =   33.0063509719


Scratch directory: /tmp/
gradient() will perform analytic gradient computation.
   => Libint2 <=

    Primary   basis highest AM E, G, H:  5, 4, 3
    Auxiliary basis highest AM E, G, H:  6, 5, 4
    Onebody   basis highest AM E, G, H:  6, 5, 4
    Solid Harmonics ordering:            Gaussian

*** tstart() called on PC001.IRVING.UPEI.CA
*** at Wed May 22 16:04:32 2024

   => Loading Basis Set <=

    Name: 6-31+G(D)
    Role: ORBITAL
    Keyword: BASIS
    atoms 1-4  entry C          line   119 file /opt/anaconda3/envs/psi4fun/share/psi4/basis/6-31pg_d_.gbs 
    atoms 5-10 entry H          line    46 file /opt/anaconda3/envs/psi4fun/share/psi4/basis/6-31pg_d_.gbs 


         ---------------------------------------------------------
                                   SCF
               by Justin Turney, Rob Parrish, Andy Simmonett
                          and Daniel G. A. Smith
                              RKS Reference
                        4 Threads,   1907 MiB Core
         ---------------------------------------------------------

  ==> Geometry <==

    Molecular point group: c2
    Full point group: C2

    Geometry (in Angstrom), charge = 0, multiplicity = 1:

       Center              X                  Y                   Z               Mass       
    ------------   -----------------  -----------------  -----------------  -----------------
         C           -0.418073557684     0.914016989466    -0.583316999710    12.000000000000
         C           -0.038981792741     0.674264408389     0.647375432935    12.000000000000
         C            0.038981792741    -0.674264408389     0.647375432935    12.000000000000
         C            0.418073557684    -0.914016989466    -0.583316999710    12.000000000000
         H           -0.536826953342     1.939477116090    -0.935733852619     1.007825032230
         H           -0.671578077819     0.140023851420    -1.294212683274     1.007825032230
         H            0.186252775419     1.357292416136     1.467213745851     1.007825032230
         H           -0.186252775419    -1.357292416136     1.467213745851     1.007825032230
         H            0.536826953342    -1.939477116090    -0.935733852619     1.007825032230
         H            0.671578077819    -0.140023851420    -1.294212683274     1.007825032230

  Running in c2 symmetry.

  Rotational constants: A =      0.55946  B =      0.35056  C =      0.22978 [cm^-1]
  Rotational constants: A =  16772.05895  B =  10509.57304  C =   6888.58685 [MHz]
  Nuclear repulsion =  116.445432528387911

  Charge       = 0
  Multiplicity = 1
  Electrons    = 30
  Nalpha       = 15
  Nbeta        = 15

  ==> Algorithm <==

  SCF Algorithm Type is DF.
  DIIS enabled.
  MOM disabled.
  Fractional occupation disabled.
  Guess Type is READ.
  Energy threshold   = 1.00e-08
  Density threshold  = 1.00e-08
  Integral threshold = 1.00e-12

  ==> Primary Basis <==

  Basis Set: 6-31+G(D)
    Blend: 6-31+G(D)
    Number of shells: 44
    Number of basis functions: 88
    Number of Cartesian functions: 88
    Spherical Harmonics?: false
    Max angular momentum: 2

  ==> DFT Potential <==

   => LibXC <=

    Version 6.2.2
    S. Lehtola, C. Steigemann, M. J.T. Oliveira, and M. A.L. Marques.,  SoftwareX 7, 1–5 (2018) (10.1016/j.softx.2017.11.002)

   => Composite Functional: B3PW91 <= 

    B3PW91 Hyb-GGA Exchange-Correlation Functional

    A. D. Becke.,  J. Chem. Phys. 98, 5648 (1993) (10.1063/1.464913)

    Deriv               =              1
    GGA                 =           TRUE
    Meta                =          FALSE

    Exchange Hybrid     =           TRUE
    MP2 Hybrid          =          FALSE

   => Exchange Functionals <=

    0.0800   Slater exchange
    0.7200         Becke 88

   => Exact (HF) Exchange <=

    0.2000               HF 

   => Correlation Functionals <=

    0.1900    Perdew & Wang
    0.8100   Perdew & Wang 91

   => LibXC Density Thresholds  <==

    XC_HYB_GGA_XC_B3PW91:  1.00E-15 

   => Molecular Quadrature <=

    Radial Scheme          =       TREUTLER
    Pruning Scheme         =           NONE
    Nuclear Scheme         =       TREUTLER

    Blocking Scheme        =         OCTREE
    BS radius alpha        =              1
    Pruning alpha          =              1
    Radial Points          =             75
    Spherical Points       =            302
    Total Points           =         215184
    Total Blocks           =           1676
    Max Points             =            256
    Max Functions          =             88
    Weights Tolerance      =       1.00E-15

   => Loading Basis Set <=

    Name: (6-31+G(D) AUX)
    Role: JKFIT
    Keyword: DF_BASIS_SCF
    atoms 1-4  entry C          line   194 file /opt/anaconda3/envs/psi4fun/share/psi4/basis/heavy-aug-cc-pvdz-jkfit.gbs 
    atoms 5-10 entry H          line   116 file /opt/anaconda3/envs/psi4fun/share/psi4/basis/heavy-aug-cc-pvdz-jkfit.gbs 

   => Loading Basis Set <=

    Name: 6-31+G(D)
    Role: ORBITAL
    Keyword: BASIS
    atoms 1-4  entry C          line   119 file /opt/anaconda3/envs/psi4fun/share/psi4/basis/6-31pg_d_.gbs 
    atoms 5-10 entry H          line    46 file /opt/anaconda3/envs/psi4fun/share/psi4/basis/6-31pg_d_.gbs 

  Reading orbitals from file /tmp/cyclobutene1.default.37994.180.npy, no projection.

  ==> Integral Setup <==

  DFHelper Memory: AOs need 0.036 GiB; user supplied 0.879 GiB. 
  Using in-core AOs.

  ==> MemDFJK: Density-Fitted J/K Matrices <==

    J tasked:                   Yes
    K tasked:                   Yes
    wK tasked:                   No
    OpenMP threads:               4
    Memory [MiB]:               899
    Algorithm:                 Core
    Schwarz Cutoff:           1E-12
    Mask sparsity (%):       0.0000
    Fitting Condition:        1E-10

   => Auxiliary Basis Set <=

  Basis Set: (6-31+G(D) AUX)
    Blend: HEAVY-AUG-CC-PVDZ-JKFIT
    Number of shells: 166
    Number of basis functions: 554
    Number of Cartesian functions: 554
    Spherical Harmonics?: false
    Max angular momentum: 3

  Cached 100.0% of DFT collocation blocks in 0.518 [GiB].

  Minimum eigenvalue in the overlap matrix is 1.1614358679E-04.
  Reciprocal condition number of the overlap matrix is 1.3247251053E-05.
    Using symmetric orthogonalization.

  ==> Pre-Iterations <==

  SCF Guess: Orbitals guess was supplied from a previous computation.

   -------------------------------------------------------
    Irrep   Nso     Nmo     Nalpha   Nbeta   Ndocc  Nsocc
   -------------------------------------------------------
     A         44      44       8       8       8       0
     B         44      44       7       7       7       0
   -------------------------------------------------------
    Total      88      88      15      15      15       0
   -------------------------------------------------------

  ==> Iterations <==

                           Total Energy        Delta E     RMS |[F,P]|

   @DF-RKS iter   0:  -155.74804923866381   -1.55748e+02   1.52121e-03 
   @DF-RKS iter   1:  -155.76686210116534   -1.88129e-02   6.40481e-04 DIIS/ADIIS
   @DF-RKS iter   2:  -155.76448898735185    2.37311e-03   1.25593e-03 DIIS/ADIIS
   @DF-RKS iter   3:  -155.76777125935905   -3.28227e-03   7.93037e-05 DIIS
   @DF-RKS iter   4:  -155.76778267732098   -1.14180e-05   1.49426e-05 DIIS
   @DF-RKS iter   5:  -155.76778310897919   -4.31658e-07   6.32992e-06 DIIS
   @DF-RKS iter   6:  -155.76778319543553   -8.64563e-08   8.20281e-07 DIIS
   @DF-RKS iter   7:  -155.76778319771020   -2.27467e-09   1.22649e-07 DIIS
   @DF-RKS iter   8:  -155.76778319776869   -5.84919e-11   1.94615e-08 DIIS
   @DF-RKS iter   9:  -155.76778319777000   -1.30740e-12   2.65420e-09 DIIS
  Energy and wave function converged.


  ==> Post-Iterations <==

   Electrons on quadrature grid:
      Ntotal   =   30.0000015463 ; deviation = 1.546e-06 

    Orbital Energies [Eh]
    ---------------------

    Doubly Occupied:                                                      

       1A    -10.168646     1B    -10.167903     2A    -10.164975  
       2B    -10.164952     3A     -0.901018     3B     -0.698193  
       4A     -0.669022     4B     -0.523741     5A     -0.522635  
       6A     -0.483818     5B     -0.414146     6B     -0.387319  
       7A     -0.362295     7B     -0.268533     8A     -0.220115  

    Virtual:                                                              

       8B     -0.034219     9A      0.022146    10A      0.027216  
      11A      0.043134     9B      0.043800    10B      0.056311  
      12A      0.076622    11B      0.081540    13A      0.102774  
      12B      0.106533    14A      0.107226    15A      0.125493  
      13B      0.132345    14B      0.146875    16A      0.159404  
      15B      0.173698    17A      0.183416    16B      0.187219  
      18A      0.218804    17B      0.227665    18B      0.255409  
      19A      0.286319    19B      0.297234    20A      0.304938  
      21A      0.357998    20B      0.397259    21B      0.451514  
      22A      0.569991    22B      0.688853    23A      0.703236  
      24A      0.727253    23B      0.732512    24B      0.739931  
      25A      0.788744    25B      0.811363    26A      0.816356  
      26B      0.841596    27A      0.859683    27B      0.906483  
      28A      0.941349    28B      0.980121    29B      0.990744  
      29A      1.025366    30A      1.055739    30B      1.096638  
      31B      1.121311    31A      1.157103    32B      1.255799  
      32A      1.352590    33B      1.477942    33A      1.546872  
      34B      1.600308    34A      1.636654    35A      1.832456  
      36A      1.940381    35B      1.955977    36B      2.087929  
      37A      2.116744    37B      2.193954    38A      2.301039  
      38B      2.385391    39A      2.415527    39B      2.418592  
      40A      2.469458    40B      2.607085    41A      2.709762  
      42A      2.764196    41B      2.912424    42B      3.033625  
      43A      4.256327    43B      4.283933    44A      4.326592  
      44B      4.432070  

    Final Occupation by Irrep:
              A     B 
    DOCC [     8,    7 ]
    NA   [     8,    7 ]
    NB   [     8,    7 ]

  @DF-RKS Final Energy:  -155.76778319777000

   => Energetics <=

    Nuclear Repulsion Energy =            116.4454325283879115
    One-Electron Energy =                -438.3116128518985306
    Two-Electron Energy =                 185.4955516138020073
    DFT Exchange-Correlation Energy =     -19.3971544880614069
    Empirical Dispersion Energy =           0.0000000000000000
    VV10 Nonlocal Energy =                  0.0000000000000000
    Total Energy =                       -155.7677831977700009

Computation Completed


Properties will be evaluated at   0.000000,   0.000000,   0.000000 [a0]

Properties computed using the SCF density matrix


 Multipole Moments:

 ------------------------------------------------------------------------------------
     Multipole            Electronic (a.u.)      Nuclear  (a.u.)        Total (a.u.)
 ------------------------------------------------------------------------------------

 L = 1.  Multiply by 2.5417464519 to convert [e a0] to [Debye]
 Dipole X            :          0.0000000            0.0000000            0.0000000
 Dipole Y            :          0.0000000           -0.0000000           -0.0000000
 Dipole Z            :          1.4301337           -1.4300774            0.0000563
 Magnitude           :                                                    0.0000563

 ------------------------------------------------------------------------------------

*** tstop() called on PC001.IRVING.UPEI.CA at Wed May 22 16:04:34 2024
Module time:
	user time   =       7.14 seconds =       0.12 minutes
	system time =       0.30 seconds =       0.01 minutes
	total time  =          2 seconds =       0.03 minutes
Total time:
	user time   =     866.05 seconds =      14.43 minutes
	system time =      31.32 seconds =       0.52 minutes
	total time  =       2655 seconds =      44.25 minutes

*** tstart() called on PC001.IRVING.UPEI.CA
*** at Wed May 22 16:04:34 2024


         ------------------------------------------------------------
                                   SCF GRAD                          
                          Rob Parrish, Justin Turney,                
                       Andy Simmonett, and Alex Sokolov              
         ------------------------------------------------------------

  ==> Geometry <==

    Molecular point group: c2
    Full point group: C2

    Geometry (in Angstrom), charge = 0, multiplicity = 1:

       Center              X                  Y                   Z               Mass       
    ------------   -----------------  -----------------  -----------------  -----------------
         C           -0.418073557684     0.914016989466    -0.583316999710    12.000000000000
         C           -0.038981792741     0.674264408389     0.647375432935    12.000000000000
         C            0.038981792741    -0.674264408389     0.647375432935    12.000000000000
         C            0.418073557684    -0.914016989466    -0.583316999710    12.000000000000
         H           -0.536826953342     1.939477116090    -0.935733852619     1.007825032230
         H           -0.671578077819     0.140023851420    -1.294212683274     1.007825032230
         H            0.186252775419     1.357292416136     1.467213745851     1.007825032230
         H           -0.186252775419    -1.357292416136     1.467213745851     1.007825032230
         H            0.536826953342    -1.939477116090    -0.935733852619     1.007825032230
         H            0.671578077819    -0.140023851420    -1.294212683274     1.007825032230

  Nuclear repulsion =  116.445432528387940

  ==> Basis Set <==

  Basis Set: 6-31+G(D)
    Blend: 6-31+G(D)
    Number of shells: 44
    Number of basis functions: 88
    Number of Cartesian functions: 88
    Spherical Harmonics?: false
    Max angular momentum: 2

  ==> DFJKGrad: Density-Fitted SCF Gradients <==

    Gradient:                    1
    J tasked:                  Yes
    K tasked:                  Yes
    wK tasked:                  No
    OpenMP threads:              4
    Integrals threads:           4
    Memory [MiB]:             1430
    Schwarz Cutoff:          1E-12
    Fitting Condition:       1E-10

   => Auxiliary Basis Set <=

  Basis Set: (6-31+G(D) AUX)
    Blend: HEAVY-AUG-CC-PVDZ-JKFIT
    Number of shells: 166
    Number of basis functions: 554
    Number of Cartesian functions: 554
    Spherical Harmonics?: false
    Max angular momentum: 3

  ==> DFT Potential <==

   => LibXC <=

    Version 6.2.2
    S. Lehtola, C. Steigemann, M. J.T. Oliveira, and M. A.L. Marques.,  SoftwareX 7, 1–5 (2018) (10.1016/j.softx.2017.11.002)

   => Composite Functional: B3PW91 <= 

    B3PW91 Hyb-GGA Exchange-Correlation Functional

    A. D. Becke.,  J. Chem. Phys. 98, 5648 (1993) (10.1063/1.464913)

    Deriv               =              1
    GGA                 =           TRUE
    Meta                =          FALSE

    Exchange Hybrid     =           TRUE
    MP2 Hybrid          =          FALSE

   => Exchange Functionals <=

    0.0800   Slater exchange
    0.7200         Becke 88

   => Exact (HF) Exchange <=

    0.2000               HF 

   => Correlation Functionals <=

    0.1900    Perdew & Wang
    0.8100   Perdew & Wang 91

   => LibXC Density Thresholds  <==

    XC_HYB_GGA_XC_B3PW91:  1.00E-15 

   => Molecular Quadrature <=

    Radial Scheme          =       TREUTLER
    Pruning Scheme         =           NONE
    Nuclear Scheme         =       TREUTLER

    Blocking Scheme        =         OCTREE
    BS radius alpha        =              1
    Pruning alpha          =              1
    Radial Points          =             75
    Spherical Points       =            302
    Total Points           =         215184
    Total Blocks           =           1676
    Max Points             =            256
    Max Functions          =             88
    Weights Tolerance      =       1.00E-15


  -Total Gradient:
     Atom            X                  Y                   Z
    ------   -----------------  -----------------  -----------------
       1        0.078314191695    -0.140576968912     0.040084723412
       2        0.025151357226    -0.065830830325    -0.048024929928
       3       -0.025151357226     0.065830830325    -0.048024929928
       4       -0.078314191695     0.140576968912     0.040084723412
       5       -0.007746551658    -0.007436794604     0.007942649164
       6        0.055402370578    -0.035228363234    -0.006848358024
       7        0.005259446377    -0.003065526149     0.006844353395
       8       -0.005259446377     0.003065526149     0.006844353395
       9        0.007746551658     0.007436794604     0.007942649164
      10       -0.055402370578     0.035228363234    -0.006848358024


*** tstop() called on PC001.IRVING.UPEI.CA at Wed May 22 16:04:34 2024
Module time:
	user time   =       2.14 seconds =       0.04 minutes
	system time =       0.05 seconds =       0.00 minutes
	total time  =          0 seconds =       0.00 minutes
Total time:
	user time   =     868.19 seconds =      14.47 minutes
	system time =      31.37 seconds =       0.52 minutes
	total time  =       2655 seconds =      44.25 minutes

    			-----------------------------------------

    			 OPTKING 3.0: for geometry optimizations 

    			     By R.A. King, Bethel University     

    			        with contributions from          

    			    A.V. Copan, J. Cayton, A. Heide      

    			-----------------------------------------

    
	                            ===> Fragment 1 <== 

	 Z (Atomic Numbers)          Masses                          Geom                  
	       6.000000            12.000000         -0.79004452  1.72724178 -1.10230937   
	       6.000000            12.000000         -0.07366491  1.27417507  1.22336227   
	       6.000000            12.000000          0.07366491 -1.27417507  1.22336227   
	       6.000000            12.000000          0.79004452 -1.72724178 -1.10230937   
	       1.000000             1.007825         -1.01445592  3.66508058 -1.76828071   
	       1.000000             1.007825         -1.26909864  0.26460673 -2.44570752   
	       1.000000             1.007825          0.35196674  2.56491094  2.77263215   
	       1.000000             1.007825         -0.35196674 -2.56491094  2.77263215   
	       1.000000             1.007825          1.01445592 -3.66508058 -1.76828071   
	       1.000000             1.007825          1.26909864 -0.26460673 -2.44570752   

	 - Coordinate -           - BOHR/RAD -       - ANG/DEG -
	 R(1,2)           =         2.475322           1.309884
	 R(1,5)           =         2.061334           1.090811
	 R(1,6)           =         2.042918           1.081065
	 R(2,3)           =         2.552605           1.350781
	 R(2,7)           =         2.060922           1.090593
	 R(3,4)           =         2.475322           1.309884
	 R(3,8)           =         2.060922           1.090593
	 R(4,9)           =         2.061334           1.090811
	 R(4,10)          =         2.042918           1.081065
	 B(1,2,3)         =         1.771575         101.503761
	 B(1,2,7)         =         2.280260         130.649259
	 B(2,1,5)         =         2.102637         120.472220
	 B(2,1,6)         =         2.158743         123.686864
	 B(2,3,4)         =         1.771575         101.503761
	 B(2,3,8)         =         2.231062         127.830416
	 B(3,2,7)         =         2.231062         127.830416
	 B(3,4,9)         =         2.102637         120.472220
	 B(3,4,10)        =         2.158743         123.686864
	 B(4,3,8)         =         2.280260         130.649259
	 B(5,1,6)         =         2.020924         115.790388
	 B(9,4,10)        =         2.020924         115.790388
	 D(1,2,3,4)       =         0.576069          33.006351
	 D(1,2,3,8)       =        -2.541717        -145.629666
	 D(2,3,4,9)       =        -3.095639        -177.367052
	 D(2,3,4,10)      =         0.093010           5.329101
	 D(3,2,1,5)       =        -3.095639        -177.367052
	 D(3,2,1,6)       =         0.093010           5.329101
	 D(4,3,2,7)       =        -2.541717        -145.629666
	 D(5,1,2,7)       =         0.021171           1.213011
	 D(6,1,2,7)       =        -3.073365        -176.090836
	 D(7,2,3,8)       =         0.623682          35.734318
	 D(8,3,4,9)       =         0.021171           1.213011
	 D(8,3,4,10)      =        -3.073365        -176.090836
	[R(1,4)[1.990,2.010]=         3.798702           2.010187


	        --- Internal Coordinate Step in ANG or DEG, aJ/ANG or AJ/DEG ---
	-------------------------------------------------------------------------------
	           Coordinate      Previous         Force          Change          New 
	           ----------      --------        ------          ------        ------
	               R(1,2)       1.30988        0.34948        0.01667       1.32656
	               R(1,5)       1.09081        0.07179        0.00369       1.09450
	               R(1,6)       1.08107       -0.13786       -0.00618       1.07488
	               R(2,3)       1.35078        0.37442        0.01897       1.36975
	               R(2,7)       1.09059       -0.03552       -0.00175       1.08885
	               R(3,4)       1.30988        0.34948        0.01667       1.32656
	               R(3,8)       1.09059       -0.03552       -0.00175       1.08885
	               R(4,9)       1.09081        0.07179        0.00369       1.09450
	              R(4,10)       1.08107       -0.13786       -0.00618       1.07488
	             B(1,2,3)     101.50376       -0.00155       -0.89402     100.60974
	             B(1,2,7)     130.64926        0.00026        0.11168     130.76094
	             B(2,1,5)     120.47222       -0.00135       -0.75276     119.71946
	             B(2,1,6)     123.68686        0.00299        1.70087     125.38773
	             B(2,3,4)     101.50376       -0.00155       -0.89402     100.60974
	             B(2,3,8)     127.83042        0.00128        0.78074     128.61116
	             B(3,2,7)     127.83042        0.00128        0.78074     128.61116
	             B(3,4,9)     120.47222       -0.00135       -0.75276     119.71946
	            B(3,4,10)     123.68686        0.00299        1.70087     125.38773
	             B(4,3,8)     130.64926        0.00026        0.11168     130.76094
	             B(5,1,6)     115.79039       -0.00175       -1.03284     114.75754
	            B(9,4,10)     115.79039       -0.00175       -1.03284     114.75754
	           D(1,2,3,4)      33.00635        0.00208        1.16662      34.17297
	           D(1,2,3,8)    -145.62967        0.00208        1.23514    -144.39453
	           D(2,3,4,9)    -177.36705        0.00069        0.51916    -176.84789
	          D(2,3,4,10)       5.32910        0.00359        2.28159       7.61069
	           D(3,2,1,5)    -177.36705        0.00069        0.51916    -176.84789
	           D(3,2,1,6)       5.32910        0.00359        2.28159       7.61069
	           D(4,3,2,7)    -145.62967        0.00208        1.23514    -144.39453
	           D(5,1,2,7)       1.21301        0.00071        0.46128       1.67429
	           D(6,1,2,7)    -176.09084        0.00361        2.22370    -173.86714
	           D(7,2,3,8)      35.73432        0.00208        1.30366      37.03798
	           D(8,3,4,9)       1.21301        0.00071        0.46128       1.67429
	          D(8,3,4,10)    -176.09084        0.00361        2.22370    -173.86714
	 [R(1,4)[1.990,2.010]       2.01019        0.00000       -0.00018       2.01000
	-------------------------------------------------------------------------------

	                                 ==> Convergence Check <==                                  
    
	Measures of convergence in internal coordinates in au.
    
	Criteria marked as inactive (o), active & met (*), and active & unmet ( ).

	----------------------------------------------------------------------------------------------
	   Step    Total Energy     Delta E     Max Force     RMS Force      Max Disp      RMS Disp   
	----------------------------------------------------------------------------------------------
	  Convergence Criteria     1.00e-06 *    3.00e-04 *             o    1.20e-03 *             o
	----------------------------------------------------------------------------------------------
	     3    -155.76778320   -1.56e-02      4.74e-02      2.70e-02 o    3.98e-02      2.14e-02 o  ~
	----------------------------------------------------------------------------------------------

Next Geometry in Ang 
	Fragment 1 (Ang)

	    C  -0.4302650998   0.9082394191  -0.5872793955
	    C  -0.0351395222   0.6839735666   0.6590477447
	    C   0.0351395222  -0.6839735666   0.6590477447
	    C   0.4302650998  -0.9082394191  -0.5872793955
	    H  -0.5385773849   1.9368059038  -0.9453882950
	    H  -0.7295860377   0.1527624658  -1.2908696586
	    H   0.1998800502   1.3764195861   1.4658152476
	    H  -0.1998800502  -1.3764195861   1.4658152476
	    H   0.5385773849  -1.9368059038  -0.9453882950
	    H   0.7295860377  -0.1527624658  -1.2908696586


    Structure for next step:
    Molecular point group: c2
    Full point group: C2

    Geometry (in Angstrom), charge = 0, multiplicity = 1:

    C       
    C             1         CC1
    C             2         CC2      1       A_321
    C             3         CC1      2       A_321      1    dihedral
[...]
    Using symmetric orthogonalization.

  ==> Pre-Iterations <==

  SCF Guess: Orbitals guess was supplied from a previous computation.

   -------------------------------------------------------
    Irrep   Nso     Nmo     Nalpha   Nbeta   Ndocc  Nsocc
   -------------------------------------------------------
     A         44      44       8       8       8       0
     B         44      44       7       7       7       0
   -------------------------------------------------------
    Total      88      88      15      15      15       0
   -------------------------------------------------------

  ==> Iterations <==

                           Total Energy        Delta E     RMS |[F,P]|

   @DF-RKS iter   0:  -155.88352828206382   -1.55884e+02   1.71719e-05 
   @DF-RKS iter   1:  -155.88359634419012   -6.80621e-05   4.64669e-06 DIIS
   @DF-RKS iter   2:  -155.88359633783213    6.35799e-09   5.32550e-06 DIIS
   @DF-RKS iter   3:  -155.88359639689395   -5.90618e-08   2.47971e-07 DIIS
   @DF-RKS iter   4:  -155.88359639705749   -1.63539e-10   4.57990e-08 DIIS
   @DF-RKS iter   5:  -155.88359639706687   -9.37916e-12   1.60479e-08 DIIS
   @DF-RKS iter   6:  -155.88359639706732   -4.54747e-13   6.32214e-09 DIIS
  Energy and wave function converged.


  ==> Post-Iterations <==

   Electrons on quadrature grid:
      Ntotal   =   29.9999918283 ; deviation = -8.172e-06 

    Orbital Energies [Eh]
    ---------------------

    Doubly Occupied:                                                      

       1A    -10.197382     1B    -10.197361     2A    -10.180426  
       2B    -10.179569     3A     -0.829651     3B     -0.672347  
       4A     -0.641706     4B     -0.525820     5A     -0.489675  
       5B     -0.447355     6A     -0.396847     7A     -0.390011  
       6B     -0.346418     8A     -0.261223     7B     -0.254706  

    Virtual:                                                              

       8B      0.001950     9A      0.006096    10A      0.031666  
      11A      0.038150     9B      0.058832    10B      0.065881  
      11B      0.066236    12A      0.092833    13A      0.093385  
      14A      0.093557    12B      0.103586    15A      0.123936  
      13B      0.142623    16A      0.155292    14B      0.156187  
      17A      0.173017    15B      0.181331    16B      0.212870  
      18A      0.221210    17B      0.231311    19A      0.235346  
      18B      0.277941    20A      0.309323    21A      0.317344  
      19B      0.325475    20B      0.372783    21B      0.461813  
      22A      0.616791    22B      0.632355    23B      0.660234  
      23A      0.664453    24B      0.712397    24A      0.739153  
      25A      0.740782    25B      0.763957    26A      0.772803  
      26B      0.841629    27A      0.894144    28A      0.905239  
      27B      0.941014    29A      0.986973    28B      0.990619  
      30A      1.006112    31A      1.062928    29B      1.114740  
      32A      1.121426    30B      1.157833    31B      1.302579  
      32B      1.391328    33B      1.484568    34B      1.506947  
      33A      1.593701    34A      1.729495    35A      1.756376  
      35B      1.895939    36A      1.947172    37A      2.004006  
      36B      2.025464    37B      2.046865    38A      2.131383  
      39A      2.249642    38B      2.324992    39B      2.342107  
      40A      2.388435    41A      2.448168    42A      2.580492  
      40B      2.605093    41B      2.843340    42B      2.915452  
      43A      4.159081    43B      4.247060    44A      4.308247  
      44B      4.542489  

    Final Occupation by Irrep:
              A     B 
    DOCC [     8,    7 ]
    NA   [     8,    7 ]
    NB   [     8,    7 ]

  @DF-RKS Final Energy:  -155.88359639706732

   => Energetics <=

    Nuclear Repulsion Energy =            108.7511978787549936
    One-Electron Energy =                -423.5055122777035876
    Two-Electron Energy =                 178.0628086354010691
    DFT Exchange-Correlation Energy =     -19.1920906335197721
    Empirical Dispersion Energy =           0.0000000000000000
    VV10 Nonlocal Energy =                  0.0000000000000000
    Total Energy =                       -155.8835963970673220

Computation Completed


Properties will be evaluated at   0.000000,   0.000000,   0.000000 [a0]

Properties computed using the SCF density matrix


 Multipole Moments:

 ------------------------------------------------------------------------------------
     Multipole            Electronic (a.u.)      Nuclear  (a.u.)        Total (a.u.)
 ------------------------------------------------------------------------------------

 L = 1.  Multiply by 2.5417464519 to convert [e a0] to [Debye]
 Dipole X            :          0.0000000            0.0000000            0.0000000
 Dipole Y            :          0.0000000            0.0000000            0.0000000
 Dipole Z            :          1.2564655           -1.2929073           -0.0364418
 Magnitude           :                                                    0.0364418

 ------------------------------------------------------------------------------------

*** tstop() called on PC001.IRVING.UPEI.CA at Wed May 22 16:05:36 2024
Module time:
	user time   =       5.63 seconds =       0.09 minutes
	system time =       0.30 seconds =       0.00 minutes
	total time  =          1 seconds =       0.02 minutes
Total time:
	user time   =    1105.44 seconds =      18.42 minutes
	system time =      40.36 seconds =       0.67 minutes
	total time  =       2717 seconds =      45.28 minutes

*** tstart() called on PC001.IRVING.UPEI.CA
*** at Wed May 22 16:05:36 2024


         ------------------------------------------------------------
                                   SCF GRAD                          
                          Rob Parrish, Justin Turney,                
                       Andy Simmonett, and Alex Sokolov              
         ------------------------------------------------------------

  ==> Geometry <==

    Molecular point group: c2
    Full point group: C2

    Geometry (in Angstrom), charge = 0, multiplicity = 1:

       Center              X                  Y                   Z               Mass       
    ------------   -----------------  -----------------  -----------------  -----------------
         C            0.994999996123    -0.000081514267    -0.707171561427    12.000000000000
         C            0.668843836810     0.000000000000     0.765085639109    12.000000000000
         C           -0.668843836810     0.000000000000     0.765085639109    12.000000000000
         C           -0.994999996123     0.000081514267    -0.707171561427    12.000000000000
         H            1.405707854977    -0.911784482094    -1.146281234907     1.007825032230
         H            1.405715171022     0.911534122335    -1.146363377445     1.007825032230
         H            1.366717713615    -0.000317132263     1.603071611135     1.007825032230
         H           -1.366717713615     0.000317132263     1.603071611135     1.007825032230
         H           -1.405707854977     0.911784482094    -1.146281234907     1.007825032230
         H           -1.405715171022    -0.911534122335    -1.146363377445     1.007825032230

  Nuclear repulsion =  108.751197878754979

  ==> Basis Set <==

  Basis Set: 6-31+G(D)
    Blend: 6-31+G(D)
    Number of shells: 44
    Number of basis functions: 88
    Number of Cartesian functions: 88
    Spherical Harmonics?: false
    Max angular momentum: 2

  ==> DFJKGrad: Density-Fitted SCF Gradients <==

    Gradient:                    1
    J tasked:                  Yes
    K tasked:                  Yes
    wK tasked:                  No
    OpenMP threads:              4
    Integrals threads:           4
    Memory [MiB]:             1430
    Schwarz Cutoff:          1E-12
    Fitting Condition:       1E-10

   => Auxiliary Basis Set <=

  Basis Set: (6-31+G(D) AUX)
    Blend: HEAVY-AUG-CC-PVDZ-JKFIT
    Number of shells: 166
    Number of basis functions: 554
    Number of Cartesian functions: 554
    Spherical Harmonics?: false
    Max angular momentum: 3

  ==> DFT Potential <==

   => LibXC <=

    Version 6.2.2
    S. Lehtola, C. Steigemann, M. J.T. Oliveira, and M. A.L. Marques.,  SoftwareX 7, 1–5 (2018) (10.1016/j.softx.2017.11.002)

   => Composite Functional: B3PW91 <= 

    B3PW91 Hyb-GGA Exchange-Correlation Functional

    A. D. Becke.,  J. Chem. Phys. 98, 5648 (1993) (10.1063/1.464913)

    Deriv               =              1
    GGA                 =           TRUE
    Meta                =          FALSE

    Exchange Hybrid     =           TRUE
    MP2 Hybrid          =          FALSE

   => Exchange Functionals <=

    0.0800   Slater exchange
    0.7200         Becke 88

   => Exact (HF) Exchange <=

    0.2000               HF 

   => Correlation Functionals <=

    0.1900    Perdew & Wang
    0.8100   Perdew & Wang 91

   => LibXC Density Thresholds  <==

    XC_HYB_GGA_XC_B3PW91:  1.00E-15 

   => Molecular Quadrature <=

    Radial Scheme          =       TREUTLER
    Pruning Scheme         =           NONE
    Nuclear Scheme         =       TREUTLER

    Blocking Scheme        =         OCTREE
    BS radius alpha        =              1
    Pruning alpha          =              1
    Radial Points          =             75
    Spherical Points       =            302
    Total Points           =         215866
    Total Blocks           =           1648
    Max Points             =            256
    Max Functions          =             88
    Weights Tolerance      =       1.00E-15


  -Total Gradient:
     Atom            X                  Y                   Z
    ------   -----------------  -----------------  -----------------
       1        0.066791628289     0.000007758605    -0.000029685915
       2        0.000260207558     0.000034871779     0.000017039482
       3       -0.000260207558    -0.000034871779     0.000017039482
       4       -0.066791628289    -0.000007758605    -0.000029685915
       5        0.000005944859     0.000015695091     0.000009462705
       6       -0.000005194696    -0.000035639163     0.000016537402
       7       -0.000008468687    -0.000013615789    -0.000016610183
       8        0.000008468687     0.000013615789    -0.000016610183
       9       -0.000005944859    -0.000015695091     0.000009462705
      10        0.000005194696     0.000035639163     0.000016537402


*** tstop() called on PC001.IRVING.UPEI.CA at Wed May 22 16:05:37 2024
Module time:
	user time   =       2.14 seconds =       0.04 minutes
	system time =       0.04 seconds =       0.00 minutes
	total time  =          1 seconds =       0.02 minutes
Total time:
	user time   =    1107.58 seconds =      18.46 minutes
	system time =      40.40 seconds =       0.67 minutes
	total time  =       2718 seconds =      45.30 minutes

    			-----------------------------------------

    			 OPTKING 3.0: for geometry optimizations 

    			     By R.A. King, Bethel University     

    			        with contributions from          

    			    A.V. Copan, J. Cayton, A. Heide      

    			-----------------------------------------

    
	                            ===> Fragment 1 <== 

	 Z (Atomic Numbers)          Masses                          Geom                  
	       6.000000            12.000000          1.88027749 -0.00015404 -1.33636057   
	       6.000000            12.000000          1.26393167  0.00000000  1.44580232   
	       6.000000            12.000000         -1.26393167  0.00000000  1.44580232   
	       6.000000            12.000000         -1.88027749  0.00015404 -1.33636057   
	       1.000000             1.007825          2.65640286 -1.72302296 -2.16615760   
	       1.000000             1.007825          2.65641668  1.72254985 -2.16631282   
	       1.000000             1.007825          2.58272217 -0.00059929  3.02936630   
	       1.000000             1.007825         -2.58272217  0.00059929  3.02936630   
	       1.000000             1.007825         -2.65640286  1.72302296 -2.16615760   
	       1.000000             1.007825         -2.65641668 -1.72254985 -2.16631282   

	 - Coordinate -           - BOHR/RAD -       - ANG/DEG -
	 R(1,2)           =         2.849616           1.507952
	 R(1,5)           =         2.063786           1.092108
	 R(1,6)           =         2.063715           1.092071
	 R(2,3)           =         2.527863           1.337688
	 R(2,7)           =         2.060797           1.090527
	 R(3,4)           =         2.849616           1.507952
	 R(3,8)           =         2.060797           1.090527
	 R(4,9)           =         2.063786           1.092108
	 R(4,10)          =         2.063715           1.092071
	 B(1,2,3)         =         1.788810         102.491268
	 B(1,2,7)         =         2.229156         127.721231
	 B(2,1,5)         =         2.064560         118.290553
	 B(2,1,6)         =         2.064560         118.290602
	 B(2,3,4)         =         1.788810         102.491268
	 B(2,3,8)         =         2.265219         129.787496
	 B(3,2,7)         =         2.265219         129.787496
	 B(3,4,9)         =         2.064560         118.290553
	 B(3,4,10)        =         2.064560         118.290602
	 B(4,3,8)         =         2.229156         127.721231
	 B(5,1,6)         =         1.975482         113.186756
	 B(9,4,10)        =         1.975482         113.186756
	 D(1,2,3,4)       =        -0.000111          -0.006345
	 D(1,2,3,8)       =        -3.141270        -179.981489
	 D(2,3,4,9)       =        -1.894625        -108.554030
	 D(2,3,4,10)      =         1.894649         108.555397
	 D(3,2,1,5)       =        -1.894625        -108.554030
	 D(3,2,1,6)       =         1.894649         108.555397
	 D(4,3,2,7)       =        -3.141270        -179.981489
	 D(5,1,2,7)       =         1.246546          71.421824
	 D(6,1,2,7)       =        -1.247365         -71.468749
	 D(7,2,3,8)       =         0.000757           0.043367
	 D(8,3,4,9)       =         1.246546          71.421824
	 D(8,3,4,10)      =        -1.247365         -71.468749
	[R(1,4)[1.990,2.010]=         3.760555           1.990000


	        --- Internal Coordinate Step in ANG or DEG, aJ/ANG or AJ/DEG ---
	-------------------------------------------------------------------------------
	           Coordinate      Previous         Force          Change          New 
	           ----------      --------        ------          ------        ------
	               R(1,2)       1.50795        0.00004        0.00004       1.50799
	               R(1,5)       1.09211        0.00012       -0.00001       1.09210
	               R(1,6)       1.09207        0.00032        0.00057       1.09264
	               R(2,3)       1.33769       -0.00185       -0.00002       1.33766
	               R(2,7)       1.09053        0.00015        0.00094       1.09147
	               R(3,4)       1.50795        0.00004        0.00004       1.50799
	               R(3,8)       1.09053        0.00015        0.00094       1.09147
	               R(4,9)       1.09211        0.00012       -0.00001       1.09210
	              R(4,10)       1.09207        0.00032        0.00057       1.09264
	             B(1,2,3)     102.49127        0.00000        0.00016     102.49143
	             B(1,2,7)     127.72123       -0.00000       -0.00017     127.72106
	             B(2,1,5)     118.29055        0.00000        0.17912     118.46968
	             B(2,1,6)     118.29060        0.00000       -0.05821     118.23239
	             B(2,3,4)     102.49127        0.00000        0.00016     102.49143
	             B(2,3,8)     129.78750       -0.00000       -0.00001     129.78748
	             B(3,2,7)     129.78750       -0.00000       -0.00001     129.78748
	             B(3,4,9)     118.29055        0.00000        0.17912     118.46968
	            B(3,4,10)     118.29060        0.00000       -0.05821     118.23239
	             B(4,3,8)     127.72123       -0.00000       -0.00017     127.72106
	             B(5,1,6)     113.18676        0.00000       -0.06666     113.12009
	            B(9,4,10)     113.18676        0.00000       -0.06666     113.12009
	           D(1,2,3,4)      -0.00634        0.00000        0.05202       0.04567
	           D(1,2,3,8)    -179.98149        0.00000        0.08519    -179.89630
	           D(2,3,4,9)    -108.55403        0.00000        0.11369    -108.44034
	          D(2,3,4,10)     108.55540       -0.00000        0.05069     108.60609
	           D(3,2,1,5)    -108.55403        0.00000        0.11369    -108.44034
	           D(3,2,1,6)     108.55540       -0.00000        0.05069     108.60609
	           D(4,3,2,7)    -179.98149        0.00000        0.08519    -179.89630
	           D(5,1,2,7)      71.42182        0.00000        0.08147      71.50329
	           D(6,1,2,7)     -71.46875       -0.00000        0.01847     -71.45028
	           D(7,2,3,8)       0.04337       -0.00000        0.11836       0.16172
	           D(8,3,4,9)      71.42182        0.00000        0.08147      71.50329
	          D(8,3,4,10)     -71.46875       -0.00000        0.01847     -71.45028
	 [R(1,4)[1.990,2.010]       1.99000        0.00000        0.00000       1.99000
	-------------------------------------------------------------------------------

	                                 ==> Convergence Check <==                                  
    
	Measures of convergence in internal coordinates in au.
    
	Criteria marked as inactive (o), active & met (*), and active & unmet ( ).

	----------------------------------------------------------------------------------------------
	   Step    Total Energy     Delta E     Max Force     RMS Force      Max Disp      RMS Disp   
	----------------------------------------------------------------------------------------------
	  Convergence Criteria     1.00e-06 *    3.00e-04 *             o    1.20e-03 *             o
	----------------------------------------------------------------------------------------------
	    28    -155.88359640   -1.24e-07 *    2.24e-04 *    4.22e-05 o    3.13e-03      1.29e-03 o  ~
	----------------------------------------------------------------------------------------------

Next Geometry in Ang 
	Fragment 1 (Ang)

	    C   0.9949999405   0.0003765656  -0.7068309315
	    C   0.6688315408  -0.0001413112   0.7654613046
	    C  -0.6688315408   0.0001413112   0.7654613046
	    C  -0.9949999405  -0.0003765656  -0.7068309315
	    H   1.4038963412  -0.9102734574  -1.1497859486
	    H   1.4068648758   0.9128098685  -1.1446726665
	    H   1.3673067702  -0.0014725511   1.6041693185
	    H  -1.3673067702   0.0014725511   1.6041693185
	    H  -1.4038963412   0.9102734574  -1.1497859486
	    H  -1.4068648758  -0.9128098685  -1.1446726665


    Final optimized geometry and variables:
    Molecular point group: c2
    Full point group: C2

    Geometry (in Angstrom), charge = 0, multiplicity = 1:

    C       
    C             1         CC1
    C             2         CC2      1       A_321
    C             3         CC1      2       A_321      1    dihedral
    H             1      CH_5_9      2      CH_512      3          D3
    H             1     CH_6_10      5      CH_615      2          D2
    H             2      CH_7_8      1      CH_721      3          D1
    H             3      CH_7_8      4      CH_721      2          D1
    H             4      CH_5_9      3      CH_512      2          D3
    H             4     CH_6_10      9      CH_615      3          D2

    A_321     =  102.4912676415
    CC1       =    1.5079519593
    CC2       =    1.3376876736
    CH_512    =  118.2905532046
    CH_5_9    =    1.0921083061
    CH_615    =  113.1867558861
    CH_6_10   =    1.0920711859
    CH_721    =  127.7212309239
    CH_7_8    =    1.0905267249
    D1        =  179.9758537036
    D2        =  144.6930149259
    D3        = -108.5540301993
    dihedral  =   -0.0063445755

