
    -----------------------------------------------------------------------
          Psi4: An Open-Source Ab Initio Electronic Structure Package
                               Psi4 1.9.1 release

                         Git: Rev {} zzzzzzz 


    D. G. A. Smith, L. A. Burns, A. C. Simmonett, R. M. Parrish,
    M. C. Schieber, R. Galvelis, P. Kraus, H. Kruse, R. Di Remigio,
    A. Alenaizan, A. M. James, S. Lehtola, J. P. Misiewicz, M. Scheurer,
    R. A. Shaw, J. B. Schriber, Y. Xie, Z. L. Glick, D. A. Sirianni,
    J. S. O'Brien, J. M. Waldrop, A. Kumar, E. G. Hohenstein,
    B. P. Pritchard, B. R. Brooks, H. F. Schaefer III, A. Yu. Sokolov,
    K. Patkowski, A. E. DePrince III, U. Bozkaya, R. A. King,
    F. A. Evangelista, J. M. Turney, T. D. Crawford, C. D. Sherrill,
    J. Chem. Phys. 152(18) 184108 (2020). https://doi.org/10.1063/5.0006002

                            Additional Code Authors
    E. T. Seidl, C. L. Janssen, E. F. Valeev, M. L. Leininger,
    J. F. Gonthier, R. M. Richard, H. R. McAlexander, M. Saitow, X. Wang,
    P. Verma, M. H. Lechner, A. Jiang, S. Behnle, A. G. Heide,
    M. F. Herbst, and D. L. Poole

             Previous Authors, Complete List of Code Contributors,
                       and Citations for Specific Modules
    https://github.com/psi4/psi4/blob/master/codemeta.json
    https://github.com/psi4/psi4/graphs/contributors
    http://psicode.org/psi4manual/master/introduction.html#citing-psifour

    -----------------------------------------------------------------------


    Psi4 started on: Wednesday, 22 May 2024 10:14AM

    Process ID: 30787
    Host:       PC001.IRVING.UPEI.CA
    PSIDATADIR: /opt/anaconda3/envs/psi4fun/share/psi4
    Memory:     1.9 GiB
    Threads:    4
    
Scratch directory: /tmp/
gradient() will perform analytic gradient computation.
   => Libint2 <=

    Primary   basis highest AM E, G, H:  5, 4, 3
    Auxiliary basis highest AM E, G, H:  6, 5, 4
    Onebody   basis highest AM E, G, H:  6, 5, 4
    Solid Harmonics ordering:            Gaussian

*** tstart() called on PC001.IRVING.UPEI.CA
*** at Wed May 22 12:46:23 2024

   => Loading Basis Set <=

    Name: 6-31+G(D)
    Role: ORBITAL
    Keyword: BASIS
    atoms 1-4  entry C          line   119 file /opt/anaconda3/envs/psi4fun/share/psi4/basis/6-31pg_d_.gbs 
    atoms 5-10 entry H          line    46 file /opt/anaconda3/envs/psi4fun/share/psi4/basis/6-31pg_d_.gbs 


         ---------------------------------------------------------
                                   SCF
               by Justin Turney, Rob Parrish, Andy Simmonett
                          and Daniel G. A. Smith
                              RKS Reference
                        4 Threads,   1907 MiB Core
         ---------------------------------------------------------

  ==> Geometry <==

    Molecular point group: c1
    Full point group: C2

    Geometry (in Angstrom), charge = 0, multiplicity = 1:

       Center              X                  Y                   Z               Mass       
    ------------   -----------------  -----------------  -----------------  -----------------
         C            0.782454160973     0.000099862788    -0.728198200016    12.000000000000
         C            0.657168579352     0.000000000000     0.792247133038    12.000000000000
         C           -0.657168579352     0.000000000000     0.792247133038    12.000000000000
         C           -0.782454160973    -0.000099862788    -0.728198200016    12.000000000000
         H            1.239106342044    -0.886611398983    -1.164870372176     1.007825032230
         H            1.238999008302     0.886929205710    -1.164719988780     1.007825032230
         H            1.412095363184     0.000007686228     1.566970688213     1.007825032230
         H           -1.412095363184    -0.000007686228     1.566970688213     1.007825032230
         H           -1.239106342044     0.886611398983    -1.164870372176     1.007825032230
         H           -1.238999008302    -0.886929205710    -1.164719988780     1.007825032230

  Running in c1 symmetry.

  Rotational constants: A =      0.43858  B =      0.40740  C =      0.22943 [cm^-1]
  Rotational constants: A =  13148.28593  B =  12213.41351  C =   6878.17246 [MHz]
  Nuclear repulsion =  113.532355080237522

  Charge       = 0
  Multiplicity = 1
  Electrons    = 30
  Nalpha       = 15
  Nbeta        = 15

  ==> Algorithm <==

  SCF Algorithm Type is DF.
  DIIS enabled.
  MOM disabled.
  Fractional occupation disabled.
  Guess Type is SAD.
  Energy threshold   = 1.00e-08
  Density threshold  = 1.00e-08
  Integral threshold = 1.00e-12

  ==> Primary Basis <==

  Basis Set: 6-31+G(D)
    Blend: 6-31+G(D)
    Number of shells: 44
    Number of basis functions: 88
    Number of Cartesian functions: 88
    Spherical Harmonics?: false
    Max angular momentum: 2

  ==> DFT Potential <==

   => LibXC <=

    Version 6.2.2
    S. Lehtola, C. Steigemann, M. J.T. Oliveira, and M. A.L. Marques.,  SoftwareX 7, 1–5 (2018) (10.1016/j.softx.2017.11.002)

   => Composite Functional: B3PW91 <= 

    B3PW91 Hyb-GGA Exchange-Correlation Functional

    A. D. Becke.,  J. Chem. Phys. 98, 5648 (1993) (10.1063/1.464913)

    Deriv               =              1
    GGA                 =           TRUE
    Meta                =          FALSE

    Exchange Hybrid     =           TRUE
    MP2 Hybrid          =          FALSE

   => Exchange Functionals <=

    0.0800   Slater exchange
    0.7200         Becke 88

   => Exact (HF) Exchange <=

    0.2000               HF 

   => Correlation Functionals <=

    0.1900    Perdew & Wang
    0.8100   Perdew & Wang 91

   => LibXC Density Thresholds  <==

    XC_HYB_GGA_XC_B3PW91:  1.00E-15 

   => Molecular Quadrature <=

    Radial Scheme          =       TREUTLER
    Pruning Scheme         =           NONE
    Nuclear Scheme         =       TREUTLER

    Blocking Scheme        =         OCTREE
    BS radius alpha        =              1
    Pruning alpha          =              1
    Radial Points          =             75
    Spherical Points       =            302
    Total Points           =         215395
    Total Blocks           =           1636
    Max Points             =            256
    Max Functions          =             88
    Weights Tolerance      =       1.00E-15

   => Loading Basis Set <=

    Name: (6-31+G(D) AUX)
    Role: JKFIT
    Keyword: DF_BASIS_SCF
    atoms 1-4  entry C          line   194 file /opt/anaconda3/envs/psi4fun/share/psi4/basis/heavy-aug-cc-pvdz-jkfit.gbs 
    atoms 5-10 entry H          line   116 file /opt/anaconda3/envs/psi4fun/share/psi4/basis/heavy-aug-cc-pvdz-jkfit.gbs 

  ==> Integral Setup <==

  DFHelper Memory: AOs need 0.036 GiB; user supplied 0.879 GiB. 
  Using in-core AOs.

  ==> MemDFJK: Density-Fitted J/K Matrices <==

    J tasked:                   Yes
    K tasked:                   Yes
    wK tasked:                   No
    OpenMP threads:               4
    Memory [MiB]:               899
    Algorithm:                 Core
    Schwarz Cutoff:           1E-12
    Mask sparsity (%):       0.0000
    Fitting Condition:        1E-10

   => Auxiliary Basis Set <=

  Basis Set: (6-31+G(D) AUX)
    Blend: HEAVY-AUG-CC-PVDZ-JKFIT
    Number of shells: 166
    Number of basis functions: 554
    Number of Cartesian functions: 554
    Spherical Harmonics?: false
    Max angular momentum: 3

  Cached 100.0% of DFT collocation blocks in 0.518 [GiB].

  Minimum eigenvalue in the overlap matrix is 1.9105950258E-05.
  Reciprocal condition number of the overlap matrix is 1.8259151919E-06.
    Using symmetric orthogonalization.

  ==> Pre-Iterations <==

  SCF Guess: Superposition of Atomic Densities via on-the-fly atomic UHF (no occupation information).

   -------------------------
    Irrep   Nso     Nmo    
   -------------------------
     A         88      88 
   -------------------------
    Total      88      88
   -------------------------

  ==> Iterations <==

                           Total Energy        Delta E     RMS |[F,P]|

   @DF-RKS iter SAD:  -155.44848437005530   -1.55448e+02   0.00000e+00 
   @DF-RKS iter   1:  -155.44647940791330    2.00496e-03   1.05566e-02 ADIIS/DIIS
   @DF-RKS iter   2:  -154.97665614950387    4.69823e-01   1.47958e-02 ADIIS/DIIS
   @DF-RKS iter   3:  -155.92024276797406   -9.43587e-01   4.07969e-04 ADIIS/DIIS
   @DF-RKS iter   4:  -155.92074575453591   -5.02987e-04   1.50082e-04 ADIIS/DIIS
   @DF-RKS iter   5:  -155.92081242366109   -6.66691e-05   6.74075e-05 DIIS
   @DF-RKS iter   6:  -155.92082921979096   -1.67961e-05   1.39582e-05 DIIS
   @DF-RKS iter   7:  -155.92083004066433   -8.20873e-07   5.41081e-07 DIIS
   @DF-RKS iter   8:  -155.92083004214180   -1.47747e-09   1.20591e-07 DIIS
   @DF-RKS iter   9:  -155.92083004220521   -6.34088e-11   1.70322e-08 DIIS
   @DF-RKS iter  10:  -155.92083004220652   -1.30740e-12   2.79336e-09 DIIS
  Energy and wave function converged.


  ==> Post-Iterations <==

   Electrons on quadrature grid:
      Ntotal   =   29.9999972161 ; deviation = -2.784e-06 

    Orbital Energies [Eh]
    ---------------------

    Doubly Occupied:                                                      

       1A    -10.175854     2A    -10.175689     3A    -10.174365  
       4A    -10.173350     5A     -0.864628     6A     -0.665523  
       7A     -0.646659     8A     -0.519274     9A     -0.503962  
      10A     -0.463137    11A     -0.385954    12A     -0.364652  
      13A     -0.332766    14A     -0.314744    15A     -0.258107  

    Virtual:                                                              

      16A      0.014145    17A      0.032010    18A      0.037080  
      19A      0.037537    20A      0.060593    21A      0.061675  
      22A      0.090189    23A      0.092226    24A      0.100010  
      25A      0.102796    26A      0.117549    27A      0.121369  
      28A      0.156582    29A      0.162412    30A      0.168911  
      31A      0.178268    32A      0.198229    33A      0.211559  
      34A      0.215713    35A      0.223562    36A      0.242618  
      37A      0.286770    38A      0.326615    39A      0.332527  
      40A      0.336344    41A      0.387131    42A      0.492062  
      43A      0.609764    44A      0.634763    45A      0.663497  
      46A      0.704849    47A      0.710507    48A      0.712239  
      49A      0.743507    50A      0.772266    51A      0.772441  
      52A      0.850665    53A      0.854090    54A      0.897763  
      55A      0.946555    56A      0.958749    57A      1.025058  
      58A      1.038049    59A      1.090997    60A      1.138479  
      61A      1.166129    62A      1.176061    63A      1.323236  
      64A      1.337858    65A      1.465242    66A      1.568235  
      67A      1.650465    68A      1.719690    69A      1.884527  
      70A      1.891436    71A      2.014164    72A      2.057281  
      73A      2.145265    74A      2.158638    75A      2.225668  
      76A      2.228947    77A      2.311518    78A      2.388102  
      79A      2.468653    80A      2.548785    81A      2.564472  
      82A      2.669819    83A      2.907699    84A      2.961380  
      85A      4.142288    86A      4.320790    87A      4.354134  
      88A      4.663351  

    Final Occupation by Irrep:
              A 
    DOCC [    15 ]
    NA   [    15 ]
    NB   [    15 ]

  @DF-RKS Final Energy:  -155.92083004220652

   => Energetics <=

    Nuclear Repulsion Energy =            113.5323550802375223
    One-Electron Energy =                -433.0560830485216570
    Two-Electron Energy =                 182.8987887011464011
    DFT Exchange-Correlation Energy =     -19.2958907750688198
    Empirical Dispersion Energy =           0.0000000000000000
    VV10 Nonlocal Energy =                  0.0000000000000000
    Total Energy =                       -155.9208300422065179

Computation Completed


Properties will be evaluated at   0.000000,   0.000000,   0.000000 [a0]

Properties computed using the SCF density matrix


 Multipole Moments:

 ------------------------------------------------------------------------------------
     Multipole            Electronic (a.u.)      Nuclear  (a.u.)        Total (a.u.)
 ------------------------------------------------------------------------------------

 L = 1.  Multiply by 2.5417464519 to convert [e a0] to [Debye]
 Dipole X            :         -0.0000000            0.0000000           -0.0000000
 Dipole Y            :         -0.0000000           -0.0000000           -0.0000000
 Dipole Z            :          1.3437108           -1.4298653           -0.0861545
 Magnitude           :                                                    0.0861545

 ------------------------------------------------------------------------------------

*** tstop() called on PC001.IRVING.UPEI.CA at Wed May 22 12:46:25 2024
Module time:
	user time   =       7.92 seconds =       0.13 minutes
	system time =       0.37 seconds =       0.01 minutes
	total time  =          2 seconds =       0.03 minutes
Total time:
	user time   =     951.76 seconds =      15.86 minutes
	system time =      28.82 seconds =       0.48 minutes
	total time  =       8720 seconds =     145.33 minutes

*** tstart() called on PC001.IRVING.UPEI.CA
*** at Wed May 22 12:46:25 2024


         ------------------------------------------------------------
                                   SCF GRAD                          
                          Rob Parrish, Justin Turney,                
                       Andy Simmonett, and Alex Sokolov              
         ------------------------------------------------------------

  ==> Geometry <==

    Molecular point group: c1
    Full point group: C2

    Geometry (in Angstrom), charge = 0, multiplicity = 1:

       Center              X                  Y                   Z               Mass       
    ------------   -----------------  -----------------  -----------------  -----------------
         C            0.782454160973     0.000099862788    -0.728198200016    12.000000000000
         C            0.657168579352     0.000000000000     0.792247133038    12.000000000000
         C           -0.657168579352     0.000000000000     0.792247133038    12.000000000000
         C           -0.782454160973    -0.000099862788    -0.728198200016    12.000000000000
         H            1.239106342044    -0.886611398983    -1.164870372176     1.007825032230
         H            1.238999008302     0.886929205710    -1.164719988780     1.007825032230
         H            1.412095363184     0.000007686228     1.566970688213     1.007825032230
         H           -1.412095363184    -0.000007686228     1.566970688213     1.007825032230
         H           -1.239106342044     0.886611398983    -1.164870372176     1.007825032230
         H           -1.238999008302    -0.886929205710    -1.164719988780     1.007825032230

  Nuclear repulsion =  113.532355080237522

  ==> Basis Set <==

  Basis Set: 6-31+G(D)
    Blend: 6-31+G(D)
    Number of shells: 44
    Number of basis functions: 88
    Number of Cartesian functions: 88
    Spherical Harmonics?: false
    Max angular momentum: 2

  ==> DFJKGrad: Density-Fitted SCF Gradients <==

    Gradient:                    1
    J tasked:                  Yes
    K tasked:                  Yes
    wK tasked:                  No
    OpenMP threads:              4
    Integrals threads:           4
    Memory [MiB]:             1430
    Schwarz Cutoff:          1E-12
    Fitting Condition:       1E-10

   => Auxiliary Basis Set <=

  Basis Set: (6-31+G(D) AUX)
    Blend: HEAVY-AUG-CC-PVDZ-JKFIT
    Number of shells: 166
    Number of basis functions: 554
    Number of Cartesian functions: 554
    Spherical Harmonics?: false
    Max angular momentum: 3

  ==> DFT Potential <==

   => LibXC <=

    Version 6.2.2
    S. Lehtola, C. Steigemann, M. J.T. Oliveira, and M. A.L. Marques.,  SoftwareX 7, 1–5 (2018) (10.1016/j.softx.2017.11.002)

   => Composite Functional: B3PW91 <= 

    B3PW91 Hyb-GGA Exchange-Correlation Functional

    A. D. Becke.,  J. Chem. Phys. 98, 5648 (1993) (10.1063/1.464913)

    Deriv               =              1
    GGA                 =           TRUE
    Meta                =          FALSE

    Exchange Hybrid     =           TRUE
    MP2 Hybrid          =          FALSE

   => Exchange Functionals <=

    0.0800   Slater exchange
    0.7200         Becke 88

   => Exact (HF) Exchange <=

    0.2000               HF 

   => Correlation Functionals <=

    0.1900    Perdew & Wang
    0.8100   Perdew & Wang 91

   => LibXC Density Thresholds  <==

    XC_HYB_GGA_XC_B3PW91:  1.00E-15 

   => Molecular Quadrature <=

    Radial Scheme          =       TREUTLER
    Pruning Scheme         =           NONE
    Nuclear Scheme         =       TREUTLER

    Blocking Scheme        =         OCTREE
    BS radius alpha        =              1
    Pruning alpha          =              1
    Radial Points          =             75
    Spherical Points       =            302
    Total Points           =         215395
    Total Blocks           =           1636
    Max Points             =            256
    Max Functions          =             88
    Weights Tolerance      =       1.00E-15


  -Total Gradient:
     Atom            X                  Y                   Z
    ------   -----------------  -----------------  -----------------
       1        0.004279842971     0.000030292738    -0.009317633608
       2       -0.032366545124    -0.000008701610     0.008968812884
       3        0.032365834250     0.000008703662     0.008968697564
       4       -0.004279008838    -0.000030296644    -0.009317748313
       5       -0.002459614676     0.004122774029     0.002194495494
       6       -0.002449578118    -0.004129372086     0.002199194388
       7       -0.002401383964    -0.000001218418    -0.004041661771
       8        0.002401470050     0.000001218042    -0.004041380653
       9        0.002459509615    -0.004122673048     0.002194472030
      10        0.002449473833     0.004129273335     0.002199171752


*** tstop() called on PC001.IRVING.UPEI.CA at Wed May 22 12:46:26 2024
Module time:
	user time   =       2.18 seconds =       0.04 minutes
	system time =       0.05 seconds =       0.00 minutes
	total time  =          1 seconds =       0.02 minutes
Total time:
	user time   =     953.95 seconds =      15.90 minutes
	system time =      28.87 seconds =       0.48 minutes
	total time  =       8721 seconds =     145.35 minutes

    			-----------------------------------------

    			 OPTKING 3.0: for geometry optimizations 

    			     By R.A. King, Bethel University     

    			        with contributions from          

    			    A.V. Copan, J. Cayton, A. Heide      

    			-----------------------------------------

    
	                            ===> Fragment 1 <== 

	 Z (Atomic Numbers)          Masses                          Geom                  
	       6.000000            12.000000          1.47862407  0.00018871 -1.37609516   
	       6.000000            12.000000          1.24186863  0.00000000  1.49713011   
	       6.000000            12.000000         -1.24186863  0.00000000  1.49713011   
	       6.000000            12.000000         -1.47862407 -0.00018871 -1.37609516   
	       1.000000             1.007825          2.34157163 -1.67545272 -2.20128598   
	       1.000000             1.007825          2.34136880  1.67605329 -2.20100179   
	       1.000000             1.007825          2.66847350  0.00001452  2.96114545   
	       1.000000             1.007825         -2.66847350 -0.00001452  2.96114545   
	       1.000000             1.007825         -2.34157163  1.67545272 -2.20128598   
	       1.000000             1.007825         -2.34136880 -1.67605329 -2.20100179   

	 - Coordinate -           - BOHR/RAD -       - ANG/DEG -
	 R(1,2)           =         2.882963           1.525598
	[R(1,4)[2.600,2.800]=         2.957248           1.564908
	 R(1,5)           =         2.057521           1.088793
	 R(1,6)           =         2.057504           1.088784
	 R(2,3)           =         2.483737           1.314337
	 R(2,7)           =         2.044148           1.081717
	 R(3,4)           =         2.882963           1.525598
	 R(3,8)           =         2.044148           1.081717
	 R(4,9)           =         2.057521           1.088793
	 R(4,10)          =         2.057504           1.088784
	 B(1,2,3)         =         1.653011          94.710564
	 B(1,2,7)         =         2.286921         131.030918
	 B(1,4,3)         =         1.488581          85.289436
	 B(1,4,9)         =         2.003479         114.790866
	 B(1,4,10)        =         2.003603         114.797987
	 B(2,1,4)         =         1.488581          85.289436
	 B(2,1,5)         =         2.019831         115.727767
	 B(2,1,6)         =         2.019791         115.725511
	 B(2,3,4)         =         1.653011          94.710564
	 B(2,3,8)         =         2.343253         134.258518
	 B(3,2,7)         =         2.343253         134.258518
	 B(3,4,9)         =         2.019831         115.727767
	 B(3,4,10)        =         2.019791         115.725511
	 B(4,1,5)         =         2.003479         114.790866
	 B(4,1,6)         =         2.003603         114.797987
	 B(4,3,8)         =         2.286921         131.030918
	 B(5,1,6)         =         1.903582         109.067191
	 B(9,4,10)        =         1.903582         109.067191
	 D(1,2,3,4)       =         0.000131           0.007526
	 D(1,2,3,8)       =        -3.141537        -179.996805
	 D(1,4,3,2)       =        -0.000128          -0.007337
	 D(1,4,3,8)       =         3.141536         179.996775
	 D(2,1,4,3)       =         0.000110           0.006321
	 D(2,1,4,9)       =         2.028425         116.220192
	 D(2,1,4,10)      =        -2.028177        -116.206011
	 D(2,3,4,9)       =        -2.012451        -115.304962
	 D(2,3,4,10)      =         2.012329         115.297944
	 D(3,2,1,4)       =        -0.000128          -0.007337
	 D(3,2,1,5)       =        -2.012451        -115.304962
	 D(3,2,1,6)       =         2.012329         115.297944
	 D(3,4,1,5)       =         2.028425         116.220192
	 D(3,4,1,6)       =        -2.028177        -116.206011
	 D(4,1,2,7)       =         3.141536         179.996775
	 D(4,3,2,7)       =        -3.141537        -179.996805
	 D(5,1,2,7)       =         1.129213          64.699150
	 D(5,1,4,9)       =        -2.226446        -127.565937
	 D(5,1,4,10)      =         0.000137           0.007860
	 D(6,1,2,7)       =        -1.129192         -64.697944
	 D(6,1,4,9)       =         0.000137           0.007860
	 D(6,1,4,10)      =         2.226720         127.581657
	 D(7,2,3,8)       =        -0.000020          -0.001137
	 D(8,3,4,9)       =         1.129213          64.699150
	 D(8,3,4,10)      =        -1.129192         -64.697944


	        --- Internal Coordinate Step in ANG or DEG, aJ/ANG or AJ/DEG ---
	-------------------------------------------------------------------------------
	           Coordinate      Previous         Force          Change          New 
	           ----------      --------        ------          ------        ------
	               R(1,2)       1.52560       -0.04450        0.04238       1.56798
	 [R(1,4)[2.600,2.800]       1.56491       -0.00000        1.01509       2.57999
	               R(1,5)       1.08879        0.04341        0.00792       1.09672
	               R(1,6)       1.08878        0.04343        0.00793       1.09671
	               R(2,3)       1.31434        0.23713        0.18964       1.50398
	               R(2,7)       1.08172        0.03766        0.00671       1.08843
	               R(3,4)       1.52560       -0.04450        0.04238       1.56798
	               R(3,8)       1.08172        0.03766        0.00671       1.08843
	               R(4,9)       1.08879        0.04341        0.00792       1.09672
	              R(4,10)       1.08878        0.04343        0.00793       1.09671
	             B(1,2,3)      94.71056       -0.00037       15.35670     110.06726
	             B(1,2,7)     131.03092        0.00027       -7.28112     123.74980
	             B(1,4,3)      85.28944        0.00037      -15.35678      69.93266
	             B(1,4,9)     114.79087       -0.00009        4.18576     118.97662
	            B(1,4,10)     114.79799       -0.00009        4.17866     118.97665
	             B(2,1,4)      85.28944        0.00037      -15.35672      69.93272
	             B(2,1,5)     115.72777       -0.00011        4.48725     120.21502
	             B(2,1,6)     115.72551       -0.00011        4.48668     120.21219
	             B(2,3,4)      94.71056       -0.00037       15.35679     110.06736
	             B(2,3,8)     134.25852        0.00010       -8.07549     126.18302
	             B(3,2,7)     134.25852        0.00010       -8.07558     126.18294
	             B(3,4,9)     115.72777       -0.00011        4.48730     120.21507
	            B(3,4,10)     115.72551       -0.00011        4.48673     120.21224
	             B(4,1,5)     114.79087       -0.00009        4.18580     118.97667
	             B(4,1,6)     114.79799       -0.00009        4.17871     118.97669
	             B(4,3,8)     131.03092        0.00027       -7.28130     123.74962
	             B(5,1,6)     109.06719        0.00005       -3.21454     105.85265
	            B(9,4,10)     109.06719        0.00005       -3.21452     105.85268
	           D(1,2,3,4)       0.00753       -0.00000       -0.02264      -0.01511
	           D(1,2,3,8)    -179.99681       -0.00000       -0.01011    -180.00692
	           D(1,4,3,2)      -0.00734        0.00000        0.01652       0.00918
	           D(1,4,3,8)     179.99678        0.00000        0.00446     180.00123
	           D(2,1,4,3)       0.00632       -0.00000       -0.01513      -0.00881
	           D(2,1,4,9)     116.22019        0.00005       -2.01501     114.20518
	          D(2,1,4,10)    -116.20601       -0.00005        1.98647    -114.21954
	           D(2,3,4,9)    -115.30496       -0.00007        2.72551    -112.57945
	          D(2,3,4,10)     115.29794        0.00007       -2.69966     112.59828
	           D(3,2,1,4)      -0.00734        0.00000        0.01652       0.00918
	           D(3,2,1,5)    -115.30496       -0.00007        2.72542    -112.57954
	           D(3,2,1,6)     115.29794        0.00007       -2.69957     112.59837
	           D(3,4,1,5)     116.22019        0.00005       -2.01505     114.20514
	           D(3,4,1,6)    -116.20601       -0.00005        1.98651    -114.21950
	           D(4,1,2,7)     179.99678        0.00000        0.00446     180.00123
	           D(4,3,2,7)    -179.99681       -0.00000       -0.01012    -180.00692
	           D(5,1,2,7)      64.69915       -0.00007        2.71336      67.41251
	           D(5,1,4,9)    -127.56594        0.00009       -4.01494    -131.58087
	          D(5,1,4,10)       0.00786       -0.00000       -0.01345      -0.00559
	           D(6,1,2,7)     -64.69794        0.00007       -2.71163     -67.40958
	           D(6,1,4,9)       0.00786       -0.00000       -0.01337      -0.00551
	          D(6,1,4,10)     127.58166       -0.00009        3.98812     131.56977
	           D(7,2,3,8)      -0.00114       -0.00000        0.00241       0.00127
	           D(8,3,4,9)      64.69915       -0.00007        2.71344      67.41259
	          D(8,3,4,10)     -64.69794        0.00007       -2.71173     -67.40967
	-------------------------------------------------------------------------------

	                                 ==> Convergence Check <==                                  
    
	Measures of convergence in internal coordinates in au.
    
	Criteria marked as inactive (o), active & met (*), and active & unmet ( ).

	----------------------------------------------------------------------------------------------
	   Step    Total Energy     Delta E     Max Force     RMS Force      Max Disp      RMS Disp   
	----------------------------------------------------------------------------------------------
	  Convergence Criteria     1.00e-06 *    3.00e-04 *             o    1.20e-03 *             o
	----------------------------------------------------------------------------------------------
	     1    -155.92083004   -1.56e+02      2.88e-02      4.73e-03 o    1.92e+00      2.84e-01 o  ~
	----------------------------------------------------------------------------------------------

Next Geometry in Ang 
	Fragment 1 (Ang)

	    C   1.2899970267   0.0000652105  -0.7471388338
	    C   0.7519883051   0.0001512350   0.7256454430
	    C  -0.7519870515  -0.0001512439   0.7256452459
	    C  -1.2899978676  -0.0000652081  -0.7471383765
	    H   1.8213495459  -0.8749548907  -1.1405758449
	    H   1.8212591124   0.8750968271  -1.1406587547
	    H   1.3945603896   0.0002707361   1.6041578982
	    H  -1.3945605596  -0.0002707283   1.6041564191
	    H  -1.8213496700   0.8749548570  -1.1405758803
	    H  -1.8212592310  -0.8750967947  -1.1406587955


    Structure for next step:
    Molecular point group: c1
    Full point group: C2

    Geometry (in Angstrom), charge = 0, multiplicity = 1:

    C       
    C             1         CC1
    C             2         CC2      1       A_321
    C             3         CC1      2       A_321      1    dihedral
    H             1      CH_5_9      2      CH_512      3          D3
    H             1     CH_6_10      5      CH_615      2          D2
    H             2      CH_7_8      1      CH_721      3          D1
    H             3      CH_7_8      4      CH_721      2          D1
    H             4      CH_5_9      3      CH_512      2          D3
    H             4     CH_6_10      9      CH_615      3          D2

    A_321     =  110.0673565969
    CC1       =    1.5679755240
    CC2       =    1.5039753871
    CH_512    =  120.2150677295
    CH_5_9    =    1.0967168832
    CH_615    =  105.8526760131
    CH_6_10   =    1.0967120104
    CH_721    =  123.7496191319
    CH_7_8    =    1.0884312606
    D1        =  179.9920473924
    D2        =  140.4177641398
    D3        = -112.5794537193
    dihedral  =   -0.0151126181


Scratch directory: /tmp/
gradient() will perform analytic gradient computation.
   => Libint2 <=

    Primary   basis highest AM E, G, H:  5, 4, 3
    Auxiliary basis highest AM E, G, H:  6, 5, 4
    Onebody   basis highest AM E, G, H:  6, 5, 4
    Solid Harmonics ordering:            Gaussian

*** tstart() called on PC001.IRVING.UPEI.CA
*** at Wed May 22 12:46:26 2024

   => Loading Basis Set <=

    Name: 6-31+G(D)
    Role: ORBITAL
    Keyword: BASIS
    atoms 1-4  entry C          line   119 file /opt/anaconda3/envs/psi4fun/share/psi4/basis/6-31pg_d_.gbs 
    atoms 5-10 entry H          line    46 file /opt/anaconda3/envs/psi4fun/share/psi4/basis/6-31pg_d_.gbs 


         ---------------------------------------------------------
                                   SCF
               by Justin Turney, Rob Parrish, Andy Simmonett
                          and Daniel G. A. Smith
                              RKS Reference
                        4 Threads,   1907 MiB Core
         ---------------------------------------------------------

  ==> Geometry <==

    Molecular point group: c1
    Full point group: C2

    Geometry (in Angstrom), charge = 0, multiplicity = 1:

       Center              X                  Y                   Z               Mass       
    ------------   -----------------  -----------------  -----------------  -----------------
         C            1.289998674443    -0.000194234337    -0.712342900624    12.000000000000
         C            0.751987693529     0.000000000000     0.760440651204    12.000000000000
         C           -0.751987693529     0.000000000000     0.760440651204    12.000000000000
         C           -1.289998674443     0.000194234337    -0.712342900624    12.000000000000
         H            1.821174534045    -0.875321145458    -1.105780338358     1.007825032230
         H            1.821436064612     0.874730489001    -1.105863246454     1.007825032230
         H            1.394561097502    -0.000009753241     1.638951908685     1.007825032230
         H           -1.394561097502     0.000009753241     1.638951908685     1.007825032230
         H           -1.821174534045     0.875321145458    -1.105780338358     1.007825032230
         H           -1.821436064612    -0.874730489001    -1.105863246454     1.007825032230

  Running in c1 symmetry.

  Rotational constants: A =      0.42691  B =      0.22815  C =      0.15725 [cm^-1]
  Rotational constants: A =  12798.45158  B =   6839.69691  C =   4714.21075 [MHz]
  Nuclear repulsion =   99.898936241297406

  Charge       = 0
  Multiplicity = 1
  Electrons    = 30
  Nalpha       = 15
  Nbeta        = 15

  ==> Algorithm <==

  SCF Algorithm Type is DF.
  DIIS enabled.
  MOM disabled.
  Fractional occupation disabled.
  Guess Type is READ.
  Energy threshold   = 1.00e-08
  Density threshold  = 1.00e-08
  Integral threshold = 1.00e-12

  ==> Primary Basis <==

  Basis Set: 6-31+G(D)
    Blend: 6-31+G(D)
    Number of shells: 44
    Number of basis functions: 88
    Number of Cartesian functions: 88
    Spherical Harmonics?: false
    Max angular momentum: 2

  ==> DFT Potential <==

   => LibXC <=

    Version 6.2.2
    S. Lehtola, C. Steigemann, M. J.T. Oliveira, and M. A.L. Marques.,  SoftwareX 7, 1–5 (2018) (10.1016/j.softx.2017.11.002)

   => Composite Functional: B3PW91 <= 

    B3PW91 Hyb-GGA Exchange-Correlation Functional

    A. D. Becke.,  J. Chem. Phys. 98, 5648 (1993) (10.1063/1.464913)

    Deriv               =              1
    GGA                 =           TRUE
    Meta                =          FALSE

    Exchange Hybrid     =           TRUE
    MP2 Hybrid          =          FALSE

   => Exchange Functionals <=

    0.0800   Slater exchange
    0.7200         Becke 88

   => Exact (HF) Exchange <=

    0.2000               HF 

   => Correlation Functionals <=

    0.1900    Perdew & Wang
    0.8100   Perdew & Wang 91

   => LibXC Density Thresholds  <==

    XC_HYB_GGA_XC_B3PW91:  1.00E-15 

   => Molecular Quadrature <=

    Radial Scheme          =       TREUTLER
    Pruning Scheme         =           NONE
    Nuclear Scheme         =       TREUTLER

    Blocking Scheme        =         OCTREE
    BS radius alpha        =              1
    Pruning alpha          =              1
    Radial Points          =             75
    Spherical Points       =            302
    Total Points           =         217122
    Total Blocks           =           1660
    Max Points             =            256
    Max Functions          =             88
    Weights Tolerance      =       1.00E-15

   => Loading Basis Set <=

    Name: (6-31+G(D) AUX)
    Role: JKFIT
    Keyword: DF_BASIS_SCF
    atoms 1-4  entry C          line   194 file /opt/anaconda3/envs/psi4fun/share/psi4/basis/heavy-aug-cc-pvdz-jkfit.gbs 
    atoms 5-10 entry H          line   116 file /opt/anaconda3/envs/psi4fun/share/psi4/basis/heavy-aug-cc-pvdz-jkfit.gbs 

   => Loading Basis Set <=

    Name: 6-31+G(D)
    Role: ORBITAL
    Keyword: BASIS
    atoms 1-4  entry C          line   119 file /opt/anaconda3/envs/psi4fun/share/psi4/basis/6-31pg_d_.gbs 
    atoms 5-10 entry H          line    46 file /opt/anaconda3/envs/psi4fun/share/psi4/basis/6-31pg_d_.gbs 

  Reading orbitals from file /tmp/cyclobutene1.default.30787.180.npy, no projection.

  ==> Integral Setup <==

  DFHelper Memory: AOs need 0.036 GiB; user supplied 0.895 GiB. 
  Using in-core AOs.

  ==> MemDFJK: Density-Fitted J/K Matrices <==

    J tasked:                   Yes
    K tasked:                   Yes
    wK tasked:                   No
    OpenMP threads:               4
    Memory [MiB]:               916
    Algorithm:                 Core
    Schwarz Cutoff:           1E-12
    Mask sparsity (%):       0.0775
    Fitting Condition:        1E-10

   => Auxiliary Basis Set <=

  Basis Set: (6-31+G(D) AUX)
    Blend: HEAVY-AUG-CC-PVDZ-JKFIT
    Number of shells: 166
    Number of basis functions: 554
    Number of Cartesian functions: 554
    Spherical Harmonics?: false
    Max angular momentum: 3

  Cached 100.0% of DFT collocation blocks in 0.502 [GiB].

  Minimum eigenvalue in the overlap matrix is 6.3195946854E-05.
  Reciprocal condition number of the overlap matrix is 6.8342412840E-06.
    Using symmetric orthogonalization.

  ==> Pre-Iterations <==

  SCF Guess: Orbitals guess was supplied from a previous computation.

   -------------------------------------------------------
    Irrep   Nso     Nmo     Nalpha   Nbeta   Ndocc  Nsocc
   -------------------------------------------------------
     A         88      88      15      15      15       0
   -------------------------------------------------------
    Total      88      88      15      15      15       0
   -------------------------------------------------------

  ==> Iterations <==

                           Total Energy        Delta E     RMS |[F,P]|

   @DF-RKS iter   0:  -155.66059207296186   -1.55661e+02   9.02274e-03 
   @DF-RKS iter   1:  -155.74979866730004   -8.92066e-02   2.62405e-03 ADIIS/DIIS
   @DF-RKS iter   2:  -155.76001827880037   -1.02196e-02   2.17782e-03 ADIIS/DIIS
   @DF-RKS iter   3:  -155.78022373071468   -2.02055e-02   3.87950e-04 ADIIS/DIIS
   @DF-RKS iter   4:  -155.78088378995110   -6.60059e-04   2.93710e-05 DIIS
   @DF-RKS iter   5:  -155.78088914619551   -5.35624e-06   7.07582e-06 DIIS
   @DF-RKS iter   6:  -155.78088942658326   -2.80388e-07   3.59170e-06 DIIS
   @DF-RKS iter   7:  -155.78088948046064   -5.38774e-08   7.77773e-07 DIIS
   @DF-RKS iter   8:  -155.78088947163297    8.82767e-09   1.53518e-06 DIIS
   @DF-RKS iter   9:  -155.78088948373104   -1.20981e-08   5.50979e-08 DIIS
   @DF-RKS iter  10:  -155.78088948374773   -1.66835e-11   7.04778e-09 DIIS
  Energy and wave function converged.


  ==> Post-Iterations <==

   Electrons on quadrature grid:
      Ntotal   =   30.0000038688 ; deviation = 3.869e-06 

    Orbital Energies [Eh]
    ---------------------

    Doubly Occupied:                                                      

       1A    -10.222529     2A    -10.222526     3A    -10.215555  
       4A    -10.215272     5A     -0.777221     6A     -0.696031  
       7A     -0.632773     8A     -0.550642     9A     -0.471323  
      10A     -0.423341    11A     -0.405318    12A     -0.385174  
      13A     -0.375213    14A     -0.240171    15A     -0.220555  

    Virtual:                                                              

      16A     -0.093098    17A     -0.029318    18A      0.028511  
      19A      0.036345    20A      0.043285    21A      0.052690  
      22A      0.072456    23A      0.089717    24A      0.093414  
      25A      0.105806    26A      0.106937    27A      0.121891  
      28A      0.132296    29A      0.148635    30A      0.151935  
      31A      0.170562    32A      0.180588    33A      0.196871  
      34A      0.204741    35A      0.205350    36A      0.224861  
      37A      0.252949    38A      0.286963    39A      0.295734  
      40A      0.298235    41A      0.337732    42A      0.390881  
      43A      0.623538    44A      0.638376    45A      0.666983  
      46A      0.671618    47A      0.703309    48A      0.716923  
      49A      0.720205    50A      0.721831    51A      0.784066  
      52A      0.785800    53A      0.830185    54A      0.838726  
      55A      0.946555    56A      0.947154    57A      0.987881  
      58A      0.988841    59A      1.049386    60A      1.072038  
      61A      1.081945    62A      1.127451    63A      1.245477  
      64A      1.275326    65A      1.399100    66A      1.539516  
      67A      1.588255    68A      1.719849    69A      1.744791  
      70A      1.783442    71A      1.870363    72A      1.892432  
      73A      1.898062    74A      1.934459    75A      1.990985  
      76A      2.106571    77A      2.159393    78A      2.217682  
      79A      2.343018    80A      2.383100    81A      2.527455  
      82A      2.554637    83A      2.670594    84A      2.748811  
      85A      4.071400    86A      4.195393    87A      4.269760  
      88A      4.451708  

    Final Occupation by Irrep:
              A 
    DOCC [    15 ]
    NA   [    15 ]
    NB   [    15 ]

  @DF-RKS Final Energy:  -155.78088948374773

   => Energetics <=

    Nuclear Repulsion Energy =             99.8989362412974060
    One-Electron Energy =                -405.6300960950648005
    Two-Electron Energy =                 168.9625827941090108
    DFT Exchange-Correlation Energy =     -19.0123124240893340
    Empirical Dispersion Energy =           0.0000000000000000
    VV10 Nonlocal Energy =                  0.0000000000000000
    Total Energy =                       -155.7808894837477283

Computation Completed


Properties will be evaluated at   0.000000,   0.000000,   0.000000 [a0]

Properties computed using the SCF density matrix


 Multipole Moments:

 ------------------------------------------------------------------------------------
     Multipole            Electronic (a.u.)      Nuclear  (a.u.)        Total (a.u.)
 ------------------------------------------------------------------------------------

 L = 1.  Multiply by 2.5417464519 to convert [e a0] to [Debye]
 Dipole X            :          0.0000001            0.0000000            0.0000001
 Dipole Y            :          0.0000000            0.0000000            0.0000000
 Dipole Z            :          1.2205385           -1.0737619            0.1467766
 Magnitude           :                                                    0.1467766

 ------------------------------------------------------------------------------------

*** tstop() called on PC001.IRVING.UPEI.CA at Wed May 22 12:46:28 2024
Module time:
	user time   =       7.51 seconds =       0.13 minutes
	system time =       0.33 seconds =       0.01 minutes
	total time  =          2 seconds =       0.03 minutes
Total time:
	user time   =     962.54 seconds =      16.04 minutes
	system time =      29.21 seconds =       0.49 minutes
	total time  =       8723 seconds =     145.38 minutes

*** tstart() called on PC001.IRVING.UPEI.CA
*** at Wed May 22 12:46:28 2024


         ------------------------------------------------------------
                                   SCF GRAD                          
                          Rob Parrish, Justin Turney,                
                       Andy Simmonett, and Alex Sokolov              
         ------------------------------------------------------------

  ==> Geometry <==

    Molecular point group: c1
    Full point group: C2

    Geometry (in Angstrom), charge = 0, multiplicity = 1:

       Center              X                  Y                   Z               Mass       
    ------------   -----------------  -----------------  -----------------  -----------------
         C            1.289998674443    -0.000194234337    -0.712342900624    12.000000000000
         C            0.751987693529     0.000000000000     0.760440651204    12.000000000000
         C           -0.751987693529     0.000000000000     0.760440651204    12.000000000000
         C           -1.289998674443     0.000194234337    -0.712342900624    12.000000000000
         H            1.821174534045    -0.875321145458    -1.105780338358     1.007825032230
         H            1.821436064612     0.874730489001    -1.105863246454     1.007825032230
         H            1.394561097502    -0.000009753241     1.638951908685     1.007825032230
         H           -1.394561097502     0.000009753241     1.638951908685     1.007825032230
         H           -1.821174534045     0.875321145458    -1.105780338358     1.007825032230
         H           -1.821436064612    -0.874730489001    -1.105863246454     1.007825032230

  Nuclear repulsion =   99.898936241297434

  ==> Basis Set <==

  Basis Set: 6-31+G(D)
    Blend: 6-31+G(D)
    Number of shells: 44
    Number of basis functions: 88
    Number of Cartesian functions: 88
    Spherical Harmonics?: false
    Max angular momentum: 2

  ==> DFJKGrad: Density-Fitted SCF Gradients <==

    Gradient:                    1
    J tasked:                  Yes
    K tasked:                  Yes
    wK tasked:                  No
    OpenMP threads:              4
    Integrals threads:           4
    Memory [MiB]:             1430
    Schwarz Cutoff:          1E-12
    Fitting Condition:       1E-10

   => Auxiliary Basis Set <=

  Basis Set: (6-31+G(D) AUX)
    Blend: HEAVY-AUG-CC-PVDZ-JKFIT
    Number of shells: 166
    Number of basis functions: 554
    Number of Cartesian functions: 554
    Spherical Harmonics?: false
    Max angular momentum: 3

  ==> DFT Potential <==

   => LibXC <=

    Version 6.2.2
    S. Lehtola, C. Steigemann, M. J.T. Oliveira, and M. A.L. Marques.,  SoftwareX 7, 1–5 (2018) (10.1016/j.softx.2017.11.002)

   => Composite Functional: B3PW91 <= 

    B3PW91 Hyb-GGA Exchange-Correlation Functional

    A. D. Becke.,  J. Chem. Phys. 98, 5648 (1993) (10.1063/1.464913)

    Deriv               =              1
    GGA                 =           TRUE
    Meta                =          FALSE

    Exchange Hybrid     =           TRUE
    MP2 Hybrid          =          FALSE

   => Exchange Functionals <=

    0.0800   Slater exchange
    0.7200         Becke 88

   => Exact (HF) Exchange <=

    0.2000               HF 

   => Correlation Functionals <=

    0.1900    Perdew & Wang
    0.8100   Perdew & Wang 91

   => LibXC Density Thresholds  <==

    XC_HYB_GGA_XC_B3PW91:  1.00E-15 

   => Molecular Quadrature <=

    Radial Scheme          =       TREUTLER
    Pruning Scheme         =           NONE
    Nuclear Scheme         =       TREUTLER

    Blocking Scheme        =         OCTREE
    BS radius alpha        =              1
    Pruning alpha          =              1
    Radial Points          =             75
    Spherical Points       =            302
    Total Points           =         217122
    Total Blocks           =           1660
    Max Points             =            256
    Max Functions          =             88
    Weights Tolerance      =       1.00E-15


  -Total Gradient:
     Atom            X                  Y                   Z
    ------   -----------------  -----------------  -----------------
       1        0.040435491729    -0.000019926875    -0.027509059306
       2        0.117980252482     0.000015090786     0.037887113321
       3       -0.117980348850    -0.000015091149     0.037887106654
       4       -0.040435363083     0.000019927707    -0.027509050759
       5        0.011541371606     0.006413462747    -0.004117530116
       6        0.011529845515    -0.006417409600    -0.004115522278
       7        0.000395818110    -0.000001096755    -0.002148094147
       8       -0.000395802738     0.000001096793    -0.002148064302
       9       -0.011541395276    -0.006413442772    -0.004117543424
      10       -0.011529869494     0.006417389118    -0.004115535794


*** tstop() called on PC001.IRVING.UPEI.CA at Wed May 22 12:46:29 2024
Module time:
	user time   =       2.14 seconds =       0.04 minutes
	system time =       0.05 seconds =       0.00 minutes
	total time  =          1 seconds =       0.02 minutes
Total time:
	user time   =     964.68 seconds =      16.08 minutes
	system time =      29.26 seconds =       0.49 minutes
	total time  =       8724 seconds =     145.40 minutes

    			-----------------------------------------

    			 OPTKING 3.0: for geometry optimizations 

    			     By R.A. King, Bethel University     

    			        with contributions from          

    			    A.V. Copan, J. Cayton, A. Heide      

    			-----------------------------------------

    
	                            ===> Fragment 1 <== 

	 Z (Atomic Numbers)          Masses                          Geom                  
	       6.000000            12.000000          2.43774420 -0.00036705 -1.34613299   
	       6.000000            12.000000          1.42105079  0.00000000  1.43702457   
	       6.000000            12.000000         -1.42105079  0.00000000  1.43702457   
	       6.000000            12.000000         -2.43774420  0.00036705 -1.34613299   
	       1.000000             1.007825          3.44152110 -1.65411724 -2.08962199   
	       1.000000             1.007825          3.44201532  1.65300106 -2.08977867   
	       1.000000             1.007825          2.63533854 -0.00001843  3.09717024   
	       1.000000             1.007825         -2.63533854  0.00001843  3.09717024   
	       1.000000             1.007825         -3.44152110  1.65411724 -2.08962199   
	       1.000000             1.007825         -3.44201532 -1.65300106 -2.08977867   

	 - Coordinate -           - BOHR/RAD -       - ANG/DEG -
	 R(1,2)           =         2.963044           1.567976
	[R(1,4)[2.600,2.800]=         4.875488           2.579997
	 R(1,5)           =         2.072495           1.096717
	 R(1,6)           =         2.072485           1.096712
	 R(2,3)           =         2.842102           1.503975
	 R(2,7)           =         2.056837           1.088431
	 R(3,4)           =         2.963044           1.567976
	 R(3,8)           =         2.056837           1.088431
	 R(4,9)           =         2.072495           1.096717
	 R(4,10)          =         2.072485           1.096712
	 B(1,2,3)         =         1.921038         110.067357
	 B(1,2,7)         =         2.159838         123.749619
	 B(1,4,3)         =         1.220555          69.932643
	 B(1,4,9)         =         2.076534         118.976631
	 B(1,4,10)        =         2.076534         118.976654
	 B(2,1,4)         =         1.220555          69.932643
	 B(2,1,5)         =         2.098149         120.215068
	 B(2,1,6)         =         2.098099         120.212243
	 B(2,3,4)         =         1.921038         110.067357
	 B(2,3,8)         =         2.202309         126.183024
	 B(3,2,7)         =         2.202309         126.183024
	 B(3,4,9)         =         2.098149         120.215068
	 B(3,4,10)        =         2.098099         120.212243
	 B(4,1,5)         =         2.076534         118.976631
	 B(4,1,6)         =         2.076534         118.976654
	 B(4,3,8)         =         2.159838         123.749619
	 B(5,1,6)         =         1.847478         105.852676
	 B(9,4,10)        =         1.847478         105.852676
	 D(1,2,3,4)       =        -0.000264          -0.015113
	 D(1,2,3,8)       =        -3.141713        -180.006920
	 D(1,4,3,2)       =         0.000160           0.009185
	 D(1,4,3,8)       =         3.141614         180.001232
	 D(2,1,4,3)       =        -0.000154          -0.008810
	 D(2,1,4,9)       =         1.993256         114.205169
	 D(2,1,4,10)      =        -1.993507        -114.219527
	 D(2,3,4,9)       =        -1.964882        -112.579454
	 D(2,3,4,10)      =         1.965211         112.598283
	 D(3,2,1,4)       =         0.000160           0.009185
	 D(3,2,1,5)       =        -1.964882        -112.579454
	 D(3,2,1,6)       =         1.965211         112.598283
	 D(3,4,1,5)       =         1.993256         114.205169
	 D(3,4,1,6)       =        -1.993507        -114.219527
	 D(4,1,2,7)       =         3.141614         180.001232
	 D(4,3,2,7)       =        -3.141713        -180.006920
	 D(5,1,2,7)       =         1.176572          67.412594
	 D(5,1,4,9)       =        -2.296519        -131.580853
	 D(5,1,4,10)      =        -0.000097          -0.005549
	 D(6,1,2,7)       =        -1.176521         -67.409669
	 D(6,1,4,9)       =        -0.000097          -0.005549
	 D(6,1,4,10)      =         2.296325         131.569755
	 D(7,2,3,8)       =         0.000022           0.001272
	 D(8,3,4,9)       =         1.176572          67.412594
	 D(8,3,4,10)      =        -1.176521         -67.409669


	        --- Internal Coordinate Step in ANG or DEG, aJ/ANG or AJ/DEG ---
	-------------------------------------------------------------------------------
	           Coordinate      Previous         Force          Change          New 
	           ----------      --------        ------          ------        ------
	               R(1,2)       1.56798       -0.23380       -0.01841       1.54957
	 [R(1,4)[2.600,2.800]       2.58000        0.00000        0.01957       2.59957
	               R(1,5)       1.09672       -0.01606       -0.00079       1.09593
	               R(1,6)       1.09671       -0.01602       -0.00078       1.09593
	               R(2,3)       1.50398       -0.85060       -0.04373       1.46025
	               R(2,7)       1.08843        0.01236        0.00124       1.08967
	               R(3,4)       1.56798       -0.23380       -0.01841       1.54957
	               R(3,8)       1.08843        0.01235        0.00124       1.08967
	               R(4,9)       1.09672       -0.01606       -0.00079       1.09593
	              R(4,10)       1.09671       -0.01602       -0.00078       1.09593
	             B(1,2,3)     110.06736        0.00168        1.50187     111.56923
	             B(1,2,7)     123.74962       -0.00071       -0.59626     123.15336
	             B(1,4,3)      69.93264       -0.00168       -1.50188      68.43076
	             B(1,4,9)     118.97663        0.00007       -0.14569     118.83094
	            B(1,4,10)     118.97665        0.00007       -0.14507     118.83158
	             B(2,1,4)      69.93264       -0.00168       -1.50187      68.43077
	             B(2,1,5)     120.21507        0.00032        0.17293     120.38800
	             B(2,1,6)     120.21224        0.00032        0.17348     120.38572
	             B(2,3,4)     110.06736        0.00168        1.50188     111.56924
	             B(2,3,8)     126.18302       -0.00096       -0.90561     125.27742
	             B(3,2,7)     126.18302       -0.00096       -0.90561     125.27741
	             B(3,4,9)     120.21507        0.00032        0.17293     120.38800
	            B(3,4,10)     120.21224        0.00032        0.17348     120.38572
	             B(4,1,5)     118.97663        0.00007       -0.14569     118.83094
	             B(4,1,6)     118.97665        0.00007       -0.14507     118.83158
	             B(4,3,8)     123.74962       -0.00071       -0.59627     123.15335
	             B(5,1,6)     105.85268        0.00035        0.72232     106.57500
	            B(9,4,10)     105.85268        0.00035        0.72232     106.57500
	           D(1,2,3,4)      -0.01511        0.00000        0.00023      -0.01488
	           D(1,2,3,8)    -180.00692        0.00000        0.00002    -180.00690
	           D(1,4,3,2)       0.00918       -0.00000       -0.00031       0.00887
	           D(1,4,3,8)     180.00123       -0.00000       -0.00015     180.00108
	           D(2,1,4,3)      -0.00881        0.00000        0.00045      -0.00836
	           D(2,1,4,9)     114.20517       -0.00038       -0.42845     113.77672
	          D(2,1,4,10)    -114.21953        0.00038        0.42885    -113.79068
	           D(2,3,4,9)    -112.57945        0.00077        0.91550    -111.66396
	          D(2,3,4,10)     112.59828       -0.00077       -0.91539     111.68289
	           D(3,2,1,4)       0.00918       -0.00000       -0.00031       0.00887
	           D(3,2,1,5)    -112.57945        0.00077        0.91550    -111.66396
	           D(3,2,1,6)     112.59828       -0.00077       -0.91539     111.68289
	           D(3,4,1,5)     114.20517       -0.00038       -0.42845     113.77671
	           D(3,4,1,6)    -114.21953        0.00038        0.42885    -113.79068
	           D(4,1,2,7)     180.00123       -0.00000       -0.00015     180.00108
	           D(4,3,2,7)    -180.00692        0.00000        0.00002    -180.00690
	           D(5,1,2,7)      67.41259        0.00077        0.91566      68.32826
	           D(5,1,4,9)    -131.58085       -0.00077       -0.85736    -132.43821
	          D(5,1,4,10)      -0.00555       -0.00000       -0.00005      -0.00560
	           D(6,1,2,7)     -67.40967       -0.00077       -0.91522     -68.32489
	           D(6,1,4,9)      -0.00555       -0.00000       -0.00005      -0.00560
	          D(6,1,4,10)     131.56975        0.00077        0.85725     132.42701
	           D(7,2,3,8)       0.00127       -0.00000       -0.00018       0.00109
	           D(8,3,4,9)      67.41259        0.00077        0.91567      68.32826
	          D(8,3,4,10)     -67.40967       -0.00077       -0.91523     -68.32490
	-------------------------------------------------------------------------------

	                                 ==> Convergence Check <==                                  
    
	Measures of convergence in internal coordinates in au.
    
	Criteria marked as inactive (o), active & met (*), and active & unmet ( ).

	----------------------------------------------------------------------------------------------
	   Step    Total Energy     Delta E     Max Force     RMS Force      Max Disp      RMS Disp   
	----------------------------------------------------------------------------------------------
	  Convergence Criteria     1.00e-06 *    3.00e-04 *             o    1.20e-03 *             o
	----------------------------------------------------------------------------------------------
	     2    -155.78088948    1.40e-01      1.03e-01      1.74e-02 o    8.26e-02      1.80e-02 o  ~
	----------------------------------------------------------------------------------------------

Next Geometry in Ang 
	Fragment 1 (Ang)

	    C   1.2997841805  -0.0001926407  -0.7043822497
	    C   0.7301235013  -0.0000030940   0.7366769889
	    C  -0.7301234087   0.0000030941   0.7366769500
	    C  -1.2997842214   0.0001926406  -0.7043822430
	    H   1.8281413014  -0.8788405166  -1.0915276942
	    H   1.8284117881   0.8782541056  -1.0916106906
	    H   1.3594497930  -0.0000142016   1.6262497861
	    H  -1.3594497967   0.0000142016   1.6262496550
	    H  -1.8281413255   0.8788404938  -1.0915276787
	    H  -1.8284118120  -0.8782540827  -1.0916106750


    Structure for next step:
    Molecular point group: c1
    Full point group: C2

    Geometry (in Angstrom), charge = 0, multiplicity = 1:

    C       
    C             1         CC1
    C             2         CC2      1       A_321
    C             3         CC1      2       A_321      1    dihedral
    H             1      CH_5_9      2      CH_512      3          D3
    H             1     CH_6_10      5      CH_615      2          D2
    H             2      CH_7_8      1      CH_721      3          D1
    H             3      CH_7_8      4      CH_721      2          D1
    H             4      CH_5_9      3      CH_512      2          D3
    H             4     CH_6_10      9      CH_615      3          D2

    A_321     =  111.5692363812
    CC1       =    1.5495693193
    CC2       =    1.4602469100
    CH_512    =  120.3879973564
    CH_5_9    =    1.0959310505
    CH_615    =  106.5749959796
    CH_6_10   =    1.0959295752
    CH_721    =  123.1533452991
    CH_7_8    =    1.0896748599
    D1        =  179.9922148390
    D2        =  141.8444487245
    D3        = -111.6639555574
    dihedral  =   -0.0148805900


Scratch directory: /tmp/
gradient() will perform analytic gradient computation.
   => Libint2 <=

    Primary   basis highest AM E, G, H:  5, 4, 3
    Auxiliary basis highest AM E, G, H:  6, 5, 4
    Onebody   basis highest AM E, G, H:  6, 5, 4
    Solid Harmonics ordering:            Gaussian

*** tstart() called on PC001.IRVING.UPEI.CA
*** at Wed May 22 12:46:29 2024

   => Loading Basis Set <=

    Name: 6-31+G(D)
    Role: ORBITAL
    Keyword: BASIS
    atoms 1-4  entry C          line   119 file /opt/anaconda3/envs/psi4fun/share/psi4/basis/6-31pg_d_.gbs 
    atoms 5-10 entry H          line    46 file /opt/anaconda3/envs/psi4fun/share/psi4/basis/6-31pg_d_.gbs 


         ---------------------------------------------------------
                                   SCF
               by Justin Turney, Rob Parrish, Andy Simmonett
                          and Daniel G. A. Smith
                              RKS Reference
                        4 Threads,   1907 MiB Core
         ---------------------------------------------------------

  ==> Geometry <==

    Molecular point group: c1
    Full point group: C2

    Geometry (in Angstrom), charge = 0, multiplicity = 1:

       Center              X                  Y                   Z               Mass       
    ------------   -----------------  -----------------  -----------------  -----------------
         C            1.299784306888    -0.000187132553    -0.697954126792    12.000000000000
         C            0.730123454993     0.000000000000     0.743105051073    12.000000000000
         C           -0.730123454993     0.000000000000     0.743105051073    12.000000000000
         C           -1.299784306888     0.000187132553    -0.697954126792    12.000000000000
         H            1.828145144709    -0.878832746643    -1.085099548352     1.007825032230
         H            1.828408185153     0.878261830955    -1.085182544695     1.007825032230
         H            1.359449819364    -0.000008440665     1.632677772807     1.007825032230
         H           -1.359449819364     0.000008440665     1.632677772807     1.007825032230
         H           -1.828145144709     0.878832746643    -1.085099548352     1.007825032230
         H           -1.828408185153    -0.878261830955    -1.085182544695     1.007825032230

  Running in c1 symmetry.

  Rotational constants: A =      0.44158  B =      0.22888  C =      0.15963 [cm^-1]
  Rotational constants: A =  13238.20539  B =   6861.70106  C =   4785.56585 [MHz]
  Nuclear repulsion =  100.849709136616795

  Charge       = 0
  Multiplicity = 1
  Electrons    = 30
  Nalpha       = 15
  Nbeta        = 15

  ==> Algorithm <==

  SCF Algorithm Type is DF.
  DIIS enabled.
  MOM disabled.
  Fractional occupation disabled.
  Guess Type is READ.
  Energy threshold   = 1.00e-08
  Density threshold  = 1.00e-08
  Integral threshold = 1.00e-12

  ==> Primary Basis <==

  Basis Set: 6-31+G(D)
    Blend: 6-31+G(D)
    Number of shells: 44
    Number of basis functions: 88
    Number of Cartesian functions: 88
    Spherical Harmonics?: false
    Max angular momentum: 2

  ==> DFT Potential <==

   => LibXC <=

    Version 6.2.2
    S. Lehtola, C. Steigemann, M. J.T. Oliveira, and M. A.L. Marques.,  SoftwareX 7, 1–5 (2018) (10.1016/j.softx.2017.11.002)

   => Composite Functional: B3PW91 <= 

    B3PW91 Hyb-GGA Exchange-Correlation Functional

    A. D. Becke.,  J. Chem. Phys. 98, 5648 (1993) (10.1063/1.464913)

    Deriv               =              1
    GGA                 =           TRUE
    Meta                =          FALSE

    Exchange Hybrid     =           TRUE
    MP2 Hybrid          =          FALSE

   => Exchange Functionals <=

    0.0800   Slater exchange
    0.7200         Becke 88

   => Exact (HF) Exchange <=

    0.2000               HF 

   => Correlation Functionals <=

    0.1900    Perdew & Wang
    0.8100   Perdew & Wang 91

   => LibXC Density Thresholds  <==

    XC_HYB_GGA_XC_B3PW91:  1.00E-15 

   => Molecular Quadrature <=

    Radial Scheme          =       TREUTLER
    Pruning Scheme         =           NONE
    Nuclear Scheme         =       TREUTLER

    Blocking Scheme        =         OCTREE
    BS radius alpha        =              1
    Pruning alpha          =              1
    Radial Points          =             75
    Spherical Points       =            302
    Total Points           =         217058
    Total Blocks           =           1650
    Max Points             =            256
    Max Functions          =             88
    Weights Tolerance      =       1.00E-15

   => Loading Basis Set <=

    Name: (6-31+G(D) AUX)
    Role: JKFIT
    Keyword: DF_BASIS_SCF
    atoms 1-4  entry C          line   194 file /opt/anaconda3/envs/psi4fun/share/psi4/basis/heavy-aug-cc-pvdz-jkfit.gbs 
    atoms 5-10 entry H          line   116 file /opt/anaconda3/envs/psi4fun/share/psi4/basis/heavy-aug-cc-pvdz-jkfit.gbs 

   => Loading Basis Set <=

    Name: 6-31+G(D)
    Role: ORBITAL
    Keyword: BASIS
    atoms 1-4  entry C          line   119 file /opt/anaconda3/envs/psi4fun/share/psi4/basis/6-31pg_d_.gbs 
    atoms 5-10 entry H          line    46 file /opt/anaconda3/envs/psi4fun/share/psi4/basis/6-31pg_d_.gbs 

  Reading orbitals from file /tmp/cyclobutene1.default.30787.180.npy, no projection.

  ==> Integral Setup <==

  DFHelper Memory: AOs need 0.036 GiB; user supplied 0.892 GiB. 
  Using in-core AOs.

  ==> MemDFJK: Density-Fitted J/K Matrices <==

    J tasked:                   Yes
    K tasked:                   Yes
    wK tasked:                   No
    OpenMP threads:               4
    Memory [MiB]:               913
    Algorithm:                 Core
    Schwarz Cutoff:           1E-12
    Mask sparsity (%):       0.0775
    Fitting Condition:        1E-10

   => Auxiliary Basis Set <=

  Basis Set: (6-31+G(D) AUX)
    Blend: HEAVY-AUG-CC-PVDZ-JKFIT
    Number of shells: 166
    Number of basis functions: 554
    Number of Cartesian functions: 554
    Spherical Harmonics?: false
    Max angular momentum: 3

  Cached 100.0% of DFT collocation blocks in 0.504 [GiB].

  Minimum eigenvalue in the overlap matrix is 5.7503268318E-05.
  Reciprocal condition number of the overlap matrix is 6.1697040785E-06.
    Using symmetric orthogonalization.

  ==> Pre-Iterations <==

  SCF Guess: Orbitals guess was supplied from a previous computation.

   -------------------------------------------------------
    Irrep   Nso     Nmo     Nalpha   Nbeta   Ndocc  Nsocc
   -------------------------------------------------------
     A         88      88      15      15      15       0
   -------------------------------------------------------
    Total      88      88      15      15      15       0
   -------------------------------------------------------

  ==> Iterations <==

                           Total Energy        Delta E     RMS |[F,P]|

   @DF-RKS iter   0:  -155.82828213850885   -1.55828e+02   1.02506e-03 
   @DF-RKS iter   1:  -155.79141329853150    3.68688e-02   3.79442e-04 ADIIS/DIIS
   @DF-RKS iter   2:  -155.79122038514797    1.92913e-04   4.52329e-04 ADIIS/DIIS
   @DF-RKS iter   3:  -155.79211008776906   -8.89703e-04   1.49469e-05 DIIS
   @DF-RKS iter   4:  -155.79211089094704   -8.03178e-07   6.74291e-06 DIIS
   @DF-RKS iter   5:  -155.79211105958859   -1.68642e-07   1.82392e-06 DIIS
   @DF-RKS iter   6:  -155.79211107459568   -1.50071e-08   2.81164e-07 DIIS
   @DF-RKS iter   7:  -155.79211107435955    2.36128e-10   3.62234e-07 DIIS
   @DF-RKS iter   8:  -155.79211107499094   -6.31388e-10   9.58609e-08 DIIS
   @DF-RKS iter   9:  -155.79211107503895   -4.80043e-11   4.38792e-09 DIIS
  Energy and wave function converged.


  ==> Post-Iterations <==

   Electrons on quadrature grid:
      Ntotal   =   30.0000059591 ; deviation = 5.959e-06 

    Orbital Energies [Eh]
    ---------------------

    Doubly Occupied:                                                      

       1A    -10.220564     2A    -10.220562     3A    -10.208895  
       4A    -10.208524     5A     -0.785158     6A     -0.698354  
       7A     -0.635307     8A     -0.547014     9A     -0.474087  
      10A     -0.425948    11A     -0.407330    12A     -0.392197  
      13A     -0.374379    14A     -0.244643    15A     -0.217042  

    Virtual:                                                              

      16A     -0.094845    17A     -0.022070    18A      0.028443  
      19A      0.036915    20A      0.043415    21A      0.054158  
      22A      0.071664    23A      0.089359    24A      0.093808  
      25A      0.105453    26A      0.106240    27A      0.122979  
      28A      0.132840    29A      0.150086    30A      0.151693  
      31A      0.172695    32A      0.180818    33A      0.200504  
      34A      0.207688    35A      0.207722    36A      0.228274  
      37A      0.260606    38A      0.289502    39A      0.296343  
      40A      0.311292    41A      0.343812    42A      0.401034  
      43A      0.624556    44A      0.634989    45A      0.668874  
      46A      0.670646    47A      0.705385    48A      0.722348  
      49A      0.723459    50A      0.723741    51A      0.780646  
      52A      0.791792    53A      0.830335    54A      0.832489  
      55A      0.946655    56A      0.947756    57A      0.983661  
      58A      0.989857    59A      1.046073    60A      1.080813  
      61A      1.085139    62A      1.127078    63A      1.253074  
      64A      1.276802    65A      1.395344    66A      1.541773  
      67A      1.592326    68A      1.725563    69A      1.755783  
      70A      1.786009    71A      1.883702    72A      1.914305  
      73A      1.921669    74A      1.936348    75A      2.004465  
      76A      2.120841    77A      2.173428    78A      2.258078  
      79A      2.350273    80A      2.403711    81A      2.527761  
      82A      2.567525    83A      2.713062    84A      2.780672  
      85A      4.088774    86A      4.199649    87A      4.275012  
      88A      4.456192  

    Final Occupation by Irrep:
              A 
    DOCC [    15 ]
    NA   [    15 ]
    NB   [    15 ]

  @DF-RKS Final Energy:  -155.79211107503895

   => Energetics <=

    Nuclear Repulsion Energy =            100.8497091366167950
    One-Electron Energy =                -407.5221512569473248
    Two-Electron Energy =                 169.9211201047160102
    DFT Exchange-Correlation Energy =     -19.0407890594244513
    Empirical Dispersion Energy =           0.0000000000000000
    VV10 Nonlocal Energy =                  0.0000000000000000
    Total Energy =                       -155.7921110750389460

Computation Completed


Properties will be evaluated at   0.000000,   0.000000,   0.000000 [a0]

Properties computed using the SCF density matrix


 Multipole Moments:

 ------------------------------------------------------------------------------------
     Multipole            Electronic (a.u.)      Nuclear  (a.u.)        Total (a.u.)
 ------------------------------------------------------------------------------------

 L = 1.  Multiply by 2.5417464519 to convert [e a0] to [Debye]
 Dipole X            :         -0.0000003            0.0000000           -0.0000003
 Dipole Y            :         -0.0000000            0.0000000           -0.0000000
 Dipole Z            :          1.1710448           -1.0079753            0.1630695
 Magnitude           :                                                    0.1630695

 ------------------------------------------------------------------------------------

*** tstop() called on PC001.IRVING.UPEI.CA at Wed May 22 12:46:31 2024
Module time:
	user time   =       7.02 seconds =       0.12 minutes
	system time =       0.33 seconds =       0.01 minutes
	total time  =          2 seconds =       0.03 minutes
Total time:
	user time   =     972.66 seconds =      16.21 minutes
	system time =      29.61 seconds =       0.49 minutes
	total time  =       8726 seconds =     145.43 minutes

*** tstart() called on PC001.IRVING.UPEI.CA
*** at Wed May 22 12:46:31 2024


         ------------------------------------------------------------
                                   SCF GRAD                          
                          Rob Parrish, Justin Turney,                
                       Andy Simmonett, and Alex Sokolov              
         ------------------------------------------------------------

  ==> Geometry <==

    Molecular point group: c1
    Full point group: C2

    Geometry (in Angstrom), charge = 0, multiplicity = 1:

       Center              X                  Y                   Z               Mass       
    ------------   -----------------  -----------------  -----------------  -----------------
         C            1.299784306888    -0.000187132553    -0.697954126792    12.000000000000
         C            0.730123454993     0.000000000000     0.743105051073    12.000000000000
         C           -0.730123454993     0.000000000000     0.743105051073    12.000000000000
         C           -1.299784306888     0.000187132553    -0.697954126792    12.000000000000
         H            1.828145144709    -0.878832746643    -1.085099548352     1.007825032230
         H            1.828408185153     0.878261830955    -1.085182544695     1.007825032230
         H            1.359449819364    -0.000008440665     1.632677772807     1.007825032230
         H           -1.359449819364     0.000008440665     1.632677772807     1.007825032230
         H           -1.828145144709     0.878832746643    -1.085099548352     1.007825032230
         H           -1.828408185153    -0.878261830955    -1.085182544695     1.007825032230

  Nuclear repulsion =  100.849709136616781

  ==> Basis Set <==

  Basis Set: 6-31+G(D)
    Blend: 6-31+G(D)
    Number of shells: 44
    Number of basis functions: 88
    Number of Cartesian functions: 88
    Spherical Harmonics?: false
    Max angular momentum: 2

  ==> DFJKGrad: Density-Fitted SCF Gradients <==

    Gradient:                    1
    J tasked:                  Yes
    K tasked:                  Yes
    wK tasked:                  No
    OpenMP threads:              4
    Integrals threads:           4
    Memory [MiB]:             1430
    Schwarz Cutoff:          1E-12
    Fitting Condition:       1E-10

   => Auxiliary Basis Set <=

  Basis Set: (6-31+G(D) AUX)
    Blend: HEAVY-AUG-CC-PVDZ-JKFIT
    Number of shells: 166
    Number of basis functions: 554
    Number of Cartesian functions: 554
    Spherical Harmonics?: false
    Max angular momentum: 3

  ==> DFT Potential <==

   => LibXC <=

    Version 6.2.2
    S. Lehtola, C. Steigemann, M. J.T. Oliveira, and M. A.L. Marques.,  SoftwareX 7, 1–5 (2018) (10.1016/j.softx.2017.11.002)

   => Composite Functional: B3PW91 <= 

    B3PW91 Hyb-GGA Exchange-Correlation Functional

    A. D. Becke.,  J. Chem. Phys. 98, 5648 (1993) (10.1063/1.464913)

    Deriv               =              1
    GGA                 =           TRUE
    Meta                =          FALSE

    Exchange Hybrid     =           TRUE
    MP2 Hybrid          =          FALSE

   => Exchange Functionals <=

    0.0800   Slater exchange
    0.7200         Becke 88

   => Exact (HF) Exchange <=

    0.2000               HF 

   => Correlation Functionals <=

    0.1900    Perdew & Wang
    0.8100   Perdew & Wang 91

   => LibXC Density Thresholds  <==

    XC_HYB_GGA_XC_B3PW91:  1.00E-15 

   => Molecular Quadrature <=

    Radial Scheme          =       TREUTLER
    Pruning Scheme         =           NONE
    Nuclear Scheme         =       TREUTLER

    Blocking Scheme        =         OCTREE
    BS radius alpha        =              1
    Pruning alpha          =              1
    Radial Points          =             75
    Spherical Points       =            302
    Total Points           =         217058
    Total Blocks           =           1650
    Max Points             =            256
    Max Functions          =             88
    Weights Tolerance      =       1.00E-15


  -Total Gradient:
     Atom            X                  Y                   Z
    ------   -----------------  -----------------  -----------------
       1        0.038481504847    -0.000019717691    -0.020643307102
       2        0.098977871965     0.000014230530     0.029613111869
       3       -0.098977705811    -0.000014230408     0.029613137380
       4       -0.038481717750     0.000019717513    -0.020643389271
       5        0.010668729365     0.005879489990    -0.003563960950
       6        0.010658343085    -0.005881566106    -0.003563406606
       7       -0.000044049571    -0.000001339841    -0.001844606136
       8        0.000044010417     0.000001339813    -0.001844615961
       9       -0.010668686455    -0.005879521126    -0.003563933591
      10       -0.010658300091     0.005881597327    -0.003563379201


*** tstop() called on PC001.IRVING.UPEI.CA at Wed May 22 12:46:31 2024
Module time:
	user time   =       2.17 seconds =       0.04 minutes
	system time =       0.05 seconds =       0.00 minutes
	total time  =          0 seconds =       0.00 minutes
Total time:
	user time   =     974.83 seconds =      16.25 minutes
	system time =      29.66 seconds =       0.49 minutes
	total time  =       8726 seconds =     145.43 minutes

    			-----------------------------------------

    			 OPTKING 3.0: for geometry optimizations 

    			     By R.A. King, Bethel University     

    			        with contributions from          

    			    A.V. Copan, J. Cayton, A. Heide      

    			-----------------------------------------

    
	                            ===> Fragment 1 <== 

	 Z (Atomic Numbers)          Masses                          Geom                  
	       6.000000            12.000000          2.45623636 -0.00035363 -1.31894215   
	       6.000000            12.000000          1.37973337  0.00000000  1.40426503   
	       6.000000            12.000000         -1.37973337  0.00000000  1.40426503   
	       6.000000            12.000000         -2.45623636  0.00035363 -1.31894215   
	       1.000000             1.007825          3.45469364 -1.66075320 -2.05054097   
	       1.000000             1.007825          3.45519072  1.65967433 -2.05069781   
	       1.000000             1.007825          2.56898784 -0.00001595  3.08531384   
	       1.000000             1.007825         -2.56898784  0.00001595  3.08531384   
	       1.000000             1.007825         -3.45469364  1.66075320 -2.05054097   
	       1.000000             1.007825         -3.45519072 -1.65967433 -2.05069781   

	 - Coordinate -           - BOHR/RAD -       - ANG/DEG -
	 R(1,2)           =         2.928262           1.549569
	[R(1,4)[2.600,2.800]=         4.912473           2.599569
	 R(1,5)           =         2.071010           1.095931
	 R(1,6)           =         2.071007           1.095930
	 R(2,3)           =         2.759467           1.460247
	 R(2,7)           =         2.059187           1.089675
	 R(3,4)           =         2.928262           1.549569
	 R(3,8)           =         2.059187           1.089675
	 R(4,9)           =         2.071010           1.095931
	 R(4,10)          =         2.071007           1.095930
	 B(1,2,3)         =         1.947251         111.569236
	 B(1,2,7)         =         2.149431         123.153345
	 B(1,4,3)         =         1.194342          68.430763
	 B(1,4,9)         =         2.073991         118.830940
	 B(1,4,10)        =         2.074002         118.831583
	 B(2,1,4)         =         1.194342          68.430763
	 B(2,1,5)         =         2.101167         120.387997
	 B(2,1,6)         =         2.101127         120.385721
	 B(2,3,4)         =         1.947251         111.569236
	 B(2,3,8)         =         2.186503         125.277418
	 B(3,2,7)         =         2.186503         125.277418
	 B(3,4,9)         =         2.101167         120.387997
	 B(3,4,10)        =         2.101127         120.385721
	 B(4,1,5)         =         2.073991         118.830940
	 B(4,1,6)         =         2.074002         118.831583
	 B(4,3,8)         =         2.149431         123.153345
	 B(5,1,6)         =         1.860085         106.574996
	 B(9,4,10)        =         1.860085         106.574996
	 D(1,2,3,4)       =        -0.000260          -0.014881
	 D(1,2,3,8)       =        -3.141713        -180.006897
	 D(1,4,3,2)       =         0.000155           0.008870
	 D(1,4,3,8)       =         3.141612         180.001085
	 D(2,1,4,3)       =        -0.000146          -0.008359
	 D(2,1,4,9)       =         1.985778         113.776714
[...]
      46A      0.695589    47A      0.714320    48A      0.744845  
      49A      0.748215    50A      0.768815    51A      0.823638  
      52A      0.852479    53A      0.901879    54A      0.939040  
      55A      0.947218    56A      0.989784    57A      0.992660  
      58A      1.025335    59A      1.058698    60A      1.086651  
      61A      1.148106    62A      1.204327    63A      1.222882  
      64A      1.268299    65A      1.495446    66A      1.497626  
      67A      1.531845    68A      1.653699    69A      1.747371  
      70A      1.812738    71A      1.902201    72A      1.998078  
      73A      2.050078    74A      2.152065    75A      2.163782  
      76A      2.223505    77A      2.299719    78A      2.347836  
      79A      2.462737    80A      2.560626    81A      2.592339  
      82A      2.690400    83A      2.857093    84A      3.018374  
      85A      4.222539    86A      4.232062    87A      4.258909  
      88A      4.460613  

    Final Occupation by Irrep:
              A 
    DOCC [    15 ]
    NA   [    15 ]
    NB   [    15 ]

  @DF-RKS Final Energy:  -155.92480477165350

   => Energetics <=

    Nuclear Repulsion Energy =            106.7171494388405222
    One-Electron Energy =                -419.3071096653263794
    Two-Electron Energy =                 175.9145153869220906
    DFT Exchange-Correlation Energy =     -19.2493599320897211
    Empirical Dispersion Energy =           0.0000000000000000
    VV10 Nonlocal Energy =                  0.0000000000000000
    Total Energy =                       -155.9248047716534984

Computation Completed


Properties will be evaluated at   0.000000,   0.000000,   0.000000 [a0]

Properties computed using the SCF density matrix


 Multipole Moments:

 ------------------------------------------------------------------------------------
     Multipole            Electronic (a.u.)      Nuclear  (a.u.)        Total (a.u.)
 ------------------------------------------------------------------------------------

 L = 1.  Multiply by 2.5417464519 to convert [e a0] to [Debye]
 Dipole X            :          0.0000000           -0.0000000            0.0000000
 Dipole Y            :         -0.0000000           -0.0000000           -0.0000000
 Dipole Z            :          1.0596356           -1.0235218            0.0361138
 Magnitude           :                                                    0.0361138

 ------------------------------------------------------------------------------------

*** tstop() called on PC001.IRVING.UPEI.CA at Wed May 22 12:49:39 2024
Module time:
	user time   =       6.06 seconds =       0.10 minutes
	system time =       0.34 seconds =       0.01 minutes
	total time  =          2 seconds =       0.03 minutes
Total time:
	user time   =    1678.77 seconds =      27.98 minutes
	system time =      58.67 seconds =       0.98 minutes
	total time  =       8914 seconds =     148.57 minutes

*** tstart() called on PC001.IRVING.UPEI.CA
*** at Wed May 22 12:49:39 2024


         ------------------------------------------------------------
                                   SCF GRAD                          
                          Rob Parrish, Justin Turney,                
                       Andy Simmonett, and Alex Sokolov              
         ------------------------------------------------------------

  ==> Geometry <==

    Molecular point group: c1
    Full point group: C2

    Geometry (in Angstrom), charge = 0, multiplicity = 1:

       Center              X                  Y                   Z               Mass       
    ------------   -----------------  -----------------  -----------------  -----------------
         C            1.367285361535     0.300883118837    -0.543521115884    12.000000000000
         C            0.727467690149     0.000000000000     0.589368424719    12.000000000000
         C           -0.727467690149     0.000000000000     0.589368424719    12.000000000000
         C           -1.367285361535    -0.300883118837    -0.543521115884    12.000000000000
         H            2.452871522145     0.255271174207    -0.611603077041     1.007825032230
         H            0.844586548967     0.651581133767    -1.427228533550     1.007825032230
         H            1.275142062311    -0.263069766398     1.492935558779     1.007825032230
         H           -1.275142062311     0.263069766398     1.492935558779     1.007825032230
         H           -2.452871522145    -0.255271174207    -0.611603077041     1.007825032230
         H           -0.844586548967    -0.651581133767    -1.427228533550     1.007825032230

  Nuclear repulsion =  106.717149438840522

  ==> Basis Set <==

  Basis Set: 6-31+G(D)
    Blend: 6-31+G(D)
    Number of shells: 44
    Number of basis functions: 88
    Number of Cartesian functions: 88
    Spherical Harmonics?: false
    Max angular momentum: 2

  ==> DFJKGrad: Density-Fitted SCF Gradients <==

    Gradient:                    1
    J tasked:                  Yes
    K tasked:                  Yes
    wK tasked:                  No
    OpenMP threads:              4
    Integrals threads:           4
    Memory [MiB]:             1430
    Schwarz Cutoff:          1E-12
    Fitting Condition:       1E-10

   => Auxiliary Basis Set <=

  Basis Set: (6-31+G(D) AUX)
    Blend: HEAVY-AUG-CC-PVDZ-JKFIT
    Number of shells: 166
    Number of basis functions: 554
    Number of Cartesian functions: 554
    Spherical Harmonics?: false
    Max angular momentum: 3

  ==> DFT Potential <==

   => LibXC <=

    Version 6.2.2
    S. Lehtola, C. Steigemann, M. J.T. Oliveira, and M. A.L. Marques.,  SoftwareX 7, 1–5 (2018) (10.1016/j.softx.2017.11.002)

   => Composite Functional: B3PW91 <= 

    B3PW91 Hyb-GGA Exchange-Correlation Functional

    A. D. Becke.,  J. Chem. Phys. 98, 5648 (1993) (10.1063/1.464913)

    Deriv               =              1
    GGA                 =           TRUE
    Meta                =          FALSE

    Exchange Hybrid     =           TRUE
    MP2 Hybrid          =          FALSE

   => Exchange Functionals <=

    0.0800   Slater exchange
    0.7200         Becke 88

   => Exact (HF) Exchange <=

    0.2000               HF 

   => Correlation Functionals <=

    0.1900    Perdew & Wang
    0.8100   Perdew & Wang 91

   => LibXC Density Thresholds  <==

    XC_HYB_GGA_XC_B3PW91:  1.00E-15 

   => Molecular Quadrature <=

    Radial Scheme          =       TREUTLER
    Pruning Scheme         =           NONE
    Nuclear Scheme         =       TREUTLER

    Blocking Scheme        =         OCTREE
    BS radius alpha        =              1
    Pruning alpha          =              1
    Radial Points          =             75
    Spherical Points       =            302
    Total Points           =         216557
    Total Blocks           =           1628
    Max Points             =            256
    Max Functions          =             88
    Weights Tolerance      =       1.00E-15


  -Total Gradient:
     Atom            X                  Y                   Z
    ------   -----------------  -----------------  -----------------
       1       -0.021179907514    -0.004616889946    -0.000321785632
       2       -0.000043417807    -0.000108173961     0.000382332937
       3        0.000043574936     0.000108191860     0.000382420594
       4        0.021179901146     0.004616844152    -0.000321941150
       5        0.000162744853     0.000044080478     0.000037287729
       6       -0.000011992187    -0.000021097444     0.000003701622
       7       -0.000084538911    -0.000017907097    -0.000100017001
       8        0.000084465471     0.000017940874    -0.000099903227
       9       -0.000162836355    -0.000044075112     0.000037286790
      10        0.000012006368     0.000021086195     0.000003674947


*** tstop() called on PC001.IRVING.UPEI.CA at Wed May 22 12:49:39 2024
Module time:
	user time   =       2.31 seconds =       0.04 minutes
	system time =       0.07 seconds =       0.00 minutes
	total time  =          0 seconds =       0.00 minutes
Total time:
	user time   =    1681.08 seconds =      28.02 minutes
	system time =      58.74 seconds =       0.98 minutes
	total time  =       8914 seconds =     148.57 minutes

    			-----------------------------------------

    			 OPTKING 3.0: for geometry optimizations 

    			     By R.A. King, Bethel University     

    			        with contributions from          

    			    A.V. Copan, J. Cayton, A. Heide      

    			-----------------------------------------

    
	                            ===> Fragment 1 <== 

	 Z (Atomic Numbers)          Masses                          Geom                  
	       6.000000            12.000000          2.58379487  0.56858669 -1.02710605   
	       6.000000            12.000000          1.37471470  0.00000000  1.11374491   
	       6.000000            12.000000         -1.37471470  0.00000000  1.11374491   
	       6.000000            12.000000         -2.58379487 -0.56858669 -1.02710605   
	       1.000000             1.007825          4.63525540  0.48239261 -1.15576231   
	       1.000000             1.007825          1.59603727  1.23130989 -2.69707105   
	       1.000000             1.007825          2.40966927 -0.49712981  2.82123933   
	       1.000000             1.007825         -2.40966927  0.49712981  2.82123933   
	       1.000000             1.007825         -4.63525540 -0.48239261 -1.15576231   
	       1.000000             1.007825         -1.59603727 -1.23130989 -2.69707105   

	 - Coordinate -           - BOHR/RAD -       - ANG/DEG -
	 R(1,2)           =         2.523571           1.335416
	[R(1,4)[2.600,2.800]=         5.291233           2.800000
	 R(1,5)           =         2.057297           1.088675
	 R(1,6)           =         2.050281           1.084962
	 R(2,3)           =         2.749429           1.454935
	 R(2,7)           =         2.057621           1.088846
	 R(3,4)           =         2.523571           1.335416
	 R(3,8)           =         2.057621           1.088846
	 R(4,9)           =         2.057297           1.088675
	 R(4,10)          =         2.050281           1.084962
	 B(1,2,3)         =         2.070442         118.627608
	 B(1,2,7)         =         2.114647         121.160362
	 B(1,4,3)         =         1.028222          58.912799
	 B(1,4,9)         =         2.875696         164.765253
	 B(1,4,10)        =         1.158144          66.356746
	 B(2,1,4)         =         1.028222          58.912799
	 B(2,1,5)         =         2.119250         121.424070
	 B(2,1,6)         =         2.132922         122.207421
	 B(2,3,4)         =         2.070442         118.627608
	 B(2,3,8)         =         2.097846         120.197742
	 B(3,2,7)         =         2.097846         120.197742
	 B(3,4,9)         =         2.119250         121.424070
	 B(3,4,10)        =         2.132922         122.207421
	 B(4,1,5)         =         2.875696         164.765253
	 B(4,1,6)         =         1.158144          66.356746
	 B(4,3,8)         =         2.114647         121.160362
	 B(5,1,6)         =         2.029746         116.295858
	 B(9,4,10)        =         2.029746         116.295858
	 D(1,2,3,4)       =         0.519192          29.747522
	 D(1,2,3,8)       =        -2.598683        -148.893543
	 D(1,4,3,2)       =        -0.244993         -14.037086
	 D(1,4,3,8)       =         2.872644         164.590363
	 D(2,1,4,3)       =         0.274278          15.714984
	 D(2,1,4,9)       =         1.948227         111.625177
	 D(2,1,4,10)      =        -2.529119        -144.907861
	 D(2,3,4,9)       =        -3.075280        -176.200549
	 D(2,3,4,10)      =         0.122426           7.014516
	 D(3,2,1,4)       =        -0.244993         -14.037086
	 D(3,2,1,5)       =        -3.075280        -176.200549
	 D(3,2,1,6)       =         0.122426           7.014516
	 D(3,4,1,5)       =         1.948227         111.625177
	 D(3,4,1,6)       =        -2.529119        -144.907861
	 D(4,1,2,7)       =         2.872644         164.590363
	 D(4,3,2,7)       =        -2.598683        -148.893543
	 D(5,1,2,7)       =         0.042357           2.426900
	 D(5,1,4,9)       =        -2.661010        -152.464629
	 D(5,1,4,10)      =        -0.855171         -48.997667
	 D(6,1,2,7)       =        -3.043122        -174.358036
	 D(6,1,4,9)       =        -0.855171         -48.997667
	 D(6,1,4,10)      =         0.950669          54.469294
	 D(7,2,3,8)       =         0.566628          32.465393
	 D(8,3,4,9)       =         0.042357           2.426900
	 D(8,3,4,10)      =        -3.043122        -174.358036


	        --- Internal Coordinate Step in ANG or DEG, aJ/ANG or AJ/DEG ---
	-------------------------------------------------------------------------------
	           Coordinate      Previous         Force          Change          New 
	           ----------      --------        ------          ------        ------
	               R(1,2)       1.33542       -0.00228        0.13602       1.47144
	 [R(1,4)[2.600,2.800]       2.80000        0.00000       -0.00057       2.79943
	               R(1,5)       1.08867       -0.00130        0.03333       1.12200
	               R(1,6)       1.08496        0.00003       -0.00121       1.08375
	               R(2,3)       1.45494        0.00055       -0.05009       1.40484
	               R(2,7)       1.08885        0.00100       -0.04408       1.04476
	               R(3,4)       1.33542       -0.00228        0.13598       1.47140
	               R(3,8)       1.08885        0.00100       -0.04405       1.04479
	               R(4,9)       1.08867       -0.00130        0.03332       1.12199
	              R(4,10)       1.08496        0.00003       -0.00123       1.08373
	             B(1,2,3)     118.62761        0.00000       -1.20234     117.42527
	             B(1,2,7)     121.16036       -0.00000        1.32828     122.48864
	             B(1,4,3)      58.91280       -0.00000        2.36548      61.27828
	             B(1,4,9)     164.76525       -0.00000        1.93588     166.70113
	            B(1,4,10)      66.35675        0.00000      -17.68005      48.67670
	             B(2,1,4)      58.91280       -0.00000        2.36453      61.27733
	             B(2,1,5)     121.42407        0.00000        0.89648     122.32055
	             B(2,1,6)     122.20742       -0.00000      -15.58776     106.61966
	             B(2,3,4)     118.62761        0.00000       -1.20132     117.42629
	             B(2,3,8)     120.19774        0.00000       -0.37374     119.82400
	             B(3,2,7)     120.19774        0.00000       -0.37308     119.82466
	             B(3,4,9)     121.42407        0.00000        0.89563     122.31970
	            B(3,4,10)     122.20742       -0.00000      -15.58679     106.62063
	             B(4,1,5)     164.76525       -0.00000        1.93622     166.70147
	             B(4,1,6)      66.35675        0.00000      -17.68014      48.67661
	             B(4,3,8)     121.16036       -0.00000        1.32793     122.48830
	             B(5,1,6)     116.29586       -0.00000       14.65342     130.94928
	            B(9,4,10)     116.29586       -0.00000       14.65331     130.94917
	           D(1,2,3,4)      29.74752        0.00000       -9.17797      20.56955
	           D(1,2,3,8)    -148.89354        0.00000       -4.81038    -153.70392
	           D(1,4,3,2)     -14.03709        0.00000        3.26423     -10.77286
	           D(1,4,3,8)     164.59036        0.00000       -1.25363     163.33673
	           D(2,1,4,3)      15.71498        0.00000       -5.30890      10.40608
	           D(2,1,4,9)     111.62518        0.00000        8.17110     119.79628
	          D(2,1,4,10)    -144.90786        0.00000       -1.05023    -145.95809
	           D(2,3,4,9)    -176.20055        0.00000        0.30564    -175.89491
	          D(2,3,4,10)       7.01452        0.00000        0.52629       7.54081
	           D(3,2,1,4)     -14.03709        0.00000        3.26454     -10.77255
	           D(3,2,1,5)    -176.20055        0.00000        0.30572    -175.89483
	           D(3,2,1,6)       7.01452        0.00000        0.52643       7.54094
	           D(3,4,1,5)     111.62518        0.00000        8.17112     119.79629
	           D(3,4,1,6)    -144.90786        0.00000       -1.05029    -145.95815
	           D(4,1,2,7)     164.59036        0.00000       -1.25342     163.33695
	           D(4,3,2,7)    -148.89354        0.00000       -4.81027    -153.70382
	           D(5,1,2,7)       2.42690        0.00000       -4.21224      -1.78534
	           D(5,1,4,9)    -152.46463       -0.00000       21.65112    -130.81350
	          D(5,1,4,10)     -48.99767       -0.00000       12.42979     -36.56787
	           D(6,1,2,7)    -174.35804        0.00000       -3.99152    -178.34956
	           D(6,1,4,9)     -48.99767       -0.00000       12.42972     -36.56795
	          D(6,1,4,10)      54.46929       -0.00000        3.20839      57.67768
	           D(7,2,3,8)      32.46539        0.00000       -0.44268      32.02271
	           D(8,3,4,9)       2.42690        0.00000       -4.21222      -1.78532
	          D(8,3,4,10)    -174.35804        0.00000       -3.99157    -178.34960
	-------------------------------------------------------------------------------

	                                 ==> Convergence Check <==                                  
    
	Measures of convergence in internal coordinates in au.
    
	Criteria marked as inactive (o), active & met (*), and active & unmet ( ).

	----------------------------------------------------------------------------------------------
	   Step    Total Energy     Delta E     Max Force     RMS Force      Max Disp      RMS Disp   
	----------------------------------------------------------------------------------------------
	  Convergence Criteria     1.00e-06 *    3.00e-04 *             o    1.20e-03 *             o
	----------------------------------------------------------------------------------------------
	    71    -155.92480477   -4.25e-07 *    2.76e-04 *    7.18e-05 o    3.78e-01      1.37e-01 o  ~
	----------------------------------------------------------------------------------------------

Next Geometry in Ang 
	Fragment 1 (Ang)

	    C   1.3746136801   0.2639432024  -0.6242159555
	    C   0.7022428958   0.0156805257   0.6608563024
	    C  -0.7022509106  -0.0156898168   0.6608390560
	    C  -1.3745946331  -0.2639419289  -0.6242021521
	    H   2.4911898672   0.2393786731  -0.7316309704
	    H   0.5978108979   0.5145367153  -1.3371639895
	    H   1.2272953805  -0.2226619730   1.5320863361
	    H  -1.2273304676   0.2226590088   1.5320896562
	    H  -2.4911648964  -0.2393714881  -0.7316078192
	    H  -0.5978118139  -0.5145329185  -1.3371479500


    Final optimized geometry and variables:
    Molecular point group: c1
    Full point group: C2

    Geometry (in Angstrom), charge = 0, multiplicity = 1:

    C       
    C             1         CC1
    C             2         CC2      1       A_321
    C             3         CC1      2       A_321      1    dihedral
    H             1      CH_5_9      2      CH_512      3          D3
    H             1     CH_6_10      5      CH_615      2          D2
    H             2      CH_7_8      1      CH_721      3          D1
    H             3      CH_7_8      4      CH_721      2          D1
    H             4      CH_5_9      3      CH_512      2          D3
    H             4     CH_6_10      9      CH_615      3          D2

    A_321     =  118.6276080542
    CC1       =    1.3354160457
    CC2       =    1.4549353803
    CH_512    =  121.4240700253
    CH_5_9    =    1.0886748436
    CH_615    =  116.2958577908
    CH_6_10   =    1.0849617258
    CH_721    =  121.1603623300
    CH_7_8    =    1.0888464013
    D1        =  178.6274486040
    D2        =  176.9658318744
    D3        = -176.2005490433
    dihedral  =   29.7475217660

