
    -----------------------------------------------------------------------
          Psi4: An Open-Source Ab Initio Electronic Structure Package
                               Psi4 1.9.1 release

                         Git: Rev {} zzzzzzz 


    D. G. A. Smith, L. A. Burns, A. C. Simmonett, R. M. Parrish,
    M. C. Schieber, R. Galvelis, P. Kraus, H. Kruse, R. Di Remigio,
    A. Alenaizan, A. M. James, S. Lehtola, J. P. Misiewicz, M. Scheurer,
    R. A. Shaw, J. B. Schriber, Y. Xie, Z. L. Glick, D. A. Sirianni,
    J. S. O'Brien, J. M. Waldrop, A. Kumar, E. G. Hohenstein,
    B. P. Pritchard, B. R. Brooks, H. F. Schaefer III, A. Yu. Sokolov,
    K. Patkowski, A. E. DePrince III, U. Bozkaya, R. A. King,
    F. A. Evangelista, J. M. Turney, T. D. Crawford, C. D. Sherrill,
    J. Chem. Phys. 152(18) 184108 (2020). https://doi.org/10.1063/5.0006002

                            Additional Code Authors
    E. T. Seidl, C. L. Janssen, E. F. Valeev, M. L. Leininger,
    J. F. Gonthier, R. M. Richard, H. R. McAlexander, M. Saitow, X. Wang,
    P. Verma, M. H. Lechner, A. Jiang, S. Behnle, A. G. Heide,
    M. F. Herbst, and D. L. Poole

             Previous Authors, Complete List of Code Contributors,
                       and Citations for Specific Modules
    https://github.com/psi4/psi4/blob/master/codemeta.json
    https://github.com/psi4/psi4/graphs/contributors
    http://psicode.org/psi4manual/master/introduction.html#citing-psifour

    -----------------------------------------------------------------------


    Psi4 started on: Wednesday, 22 May 2024 04:31PM

    Process ID: 16013
    Host:       Barrys-MacBook-Pro.local
    PSIDATADIR: /Users/blink/psi4conda/share/psi4
    Memory:     1.9 GiB
    Threads:    4
    
Scratch directory: /tmp/
gradient() will perform analytic gradient computation.
   => Libint2 <=

    Primary   basis highest AM E, G, H:  5, 4, 3
    Auxiliary basis highest AM E, G, H:  6, 5, 4
    Onebody   basis highest AM E, G, H:  6, 5, 4
    Solid Harmonics ordering:            Gaussian

*** tstart() called on Barrys-MacBook-Pro.local
*** at Wed May 22 18:25:49 2024

   => Loading Basis Set <=

    Name: 6-31+G(D)
    Role: ORBITAL
    Keyword: BASIS
    atoms 1-4  entry C          line   119 file /Users/blink/psi4conda/share/psi4/basis/6-31pg_d_.gbs 
    atoms 5-10 entry H          line    46 file /Users/blink/psi4conda/share/psi4/basis/6-31pg_d_.gbs 


         ---------------------------------------------------------
                                   SCF
               by Justin Turney, Rob Parrish, Andy Simmonett
                          and Daniel G. A. Smith
                              RKS Reference
                        4 Threads,   1907 MiB Core
         ---------------------------------------------------------

  ==> Geometry <==

    Molecular point group: c2
    Full point group: C2

    Geometry (in Angstrom), charge = 0, multiplicity = 1:

       Center              X                  Y                   Z               Mass       
    ------------   -----------------  -----------------  -----------------  -----------------
         C            1.319617982398     0.307625417926    -0.544629225561    12.000000000000
         C            0.728953949372     0.000000000000     0.592949904609    12.000000000000
         C           -0.728953949372     0.000000000000     0.592949904609    12.000000000000
         C           -1.319617982398    -0.307625417926    -0.544629225561    12.000000000000
         H            2.391683955968     0.260350426648    -0.644539524982     1.007825032230
         H            0.788876071580     0.674387802650    -1.398652574963     1.007825032230
         H            1.288680959815    -0.281470705840     1.467846052735     1.007825032230
         H           -1.288680959815     0.281470705840     1.467846052735     1.007825032230
         H           -2.391683955968    -0.260350426648    -0.644539524982     1.007825032230
         H           -0.788876071580    -0.674387802650    -1.398652574963     1.007825032230

  Running in c2 symmetry.

  Rotational constants: A =      0.64091  B =      0.22731  C =      0.17340 [cm^-1]
  Rotational constants: A =  19213.96458  B =   6814.50866  C =   5198.29094 [MHz]
  Nuclear repulsion =  108.098496374311537

  Charge       = 0
  Multiplicity = 1
  Electrons    = 30
  Nalpha       = 15
  Nbeta        = 15

  ==> Algorithm <==

  SCF Algorithm Type is DF.
  DIIS enabled.
  MOM disabled.
  Fractional occupation disabled.
  Guess Type is SAD.
  Energy threshold   = 1.00e-08
  Density threshold  = 1.00e-08
  Integral threshold = 1.00e-12

  ==> Primary Basis <==

  Basis Set: 6-31+G(D)
    Blend: 6-31+G(D)
    Number of shells: 44
    Number of basis functions: 88
    Number of Cartesian functions: 88
    Spherical Harmonics?: false
    Max angular momentum: 2

  ==> DFT Potential <==

   => LibXC <=

    Version 6.2.2
    S. Lehtola, C. Steigemann, M. J.T. Oliveira, and M. A.L. Marques.,  SoftwareX 7, 1–5 (2018) (10.1016/j.softx.2017.11.002)

   => Composite Functional: B3PW91 <= 

    B3PW91 Hyb-GGA Exchange-Correlation Functional

    A. D. Becke.,  J. Chem. Phys. 98, 5648 (1993) (10.1063/1.464913)

    Deriv               =              1
    GGA                 =           TRUE
    Meta                =          FALSE

    Exchange Hybrid     =           TRUE
    MP2 Hybrid          =          FALSE

   => Exchange Functionals <=

    0.0800   Slater exchange
    0.7200         Becke 88

   => Exact (HF) Exchange <=

    0.2000               HF 

   => Correlation Functionals <=

    0.1900    Perdew & Wang
    0.8100   Perdew & Wang 91

   => LibXC Density Thresholds  <==

    XC_HYB_GGA_XC_B3PW91:  1.00E-15 

   => Molecular Quadrature <=

    Radial Scheme          =       TREUTLER
    Pruning Scheme         =           NONE
    Nuclear Scheme         =       TREUTLER

    Blocking Scheme        =         OCTREE
    BS radius alpha        =              1
    Pruning alpha          =              1
    Radial Points          =             75
    Spherical Points       =            302
    Total Points           =         216452
    Total Blocks           =           1648
    Max Points             =            256
    Max Functions          =             88
    Weights Tolerance      =       1.00E-15

   => Loading Basis Set <=

    Name: (6-31+G(D) AUX)
    Role: JKFIT
    Keyword: DF_BASIS_SCF
    atoms 1-4  entry C          line   194 file /Users/blink/psi4conda/share/psi4/basis/heavy-aug-cc-pvdz-jkfit.gbs 
    atoms 5-10 entry H          line   116 file /Users/blink/psi4conda/share/psi4/basis/heavy-aug-cc-pvdz-jkfit.gbs 

  ==> Integral Setup <==

  DFHelper Memory: AOs need 0.036 GiB; user supplied 0.892 GiB. 
  Using in-core AOs.

  ==> MemDFJK: Density-Fitted J/K Matrices <==

    J tasked:                   Yes
    K tasked:                   Yes
    wK tasked:                   No
    OpenMP threads:               4
    Memory [MiB]:               913
    Algorithm:                 Core
    Schwarz Cutoff:           1E-12
    Mask sparsity (%):       0.0775
    Fitting Condition:        1E-10

   => Auxiliary Basis Set <=

  Basis Set: (6-31+G(D) AUX)
    Blend: HEAVY-AUG-CC-PVDZ-JKFIT
    Number of shells: 166
    Number of basis functions: 554
    Number of Cartesian functions: 554
    Spherical Harmonics?: false
    Max angular momentum: 3

  Cached 100.0% of DFT collocation blocks in 0.505 [GiB].

  Minimum eigenvalue in the overlap matrix is 1.0551057626E-04.
  Reciprocal condition number of the overlap matrix is 1.3044024873E-05.
    Using symmetric orthogonalization.

  ==> Pre-Iterations <==

  SCF Guess: Superposition of Atomic Densities via on-the-fly atomic UHF (no occupation information).

   -------------------------
    Irrep   Nso     Nmo    
   -------------------------
     A         44      44 
     B         44      44 
   -------------------------
    Total      88      88
   -------------------------

  ==> Iterations <==

                           Total Energy        Delta E     RMS |[F,P]|

   @DF-RKS iter SAD:  -155.25996959060635   -1.55260e+02   0.00000e+00 
   @DF-RKS iter   1:  -155.47370059916312   -2.13731e-01   1.43288e-02 ADIIS/DIIS
   @DF-RKS iter   2:  -155.22911814390579    2.44582e-01   1.74750e-02 ADIIS/DIIS
   @DF-RKS iter   3:  -155.91194408792984   -6.82826e-01   1.87800e-03 ADIIS/DIIS
   @DF-RKS iter   4:  -155.91222462652624   -2.80539e-04   1.85051e-03 ADIIS/DIIS
   @DF-RKS iter   5:  -155.91909701279155   -6.87239e-03   1.37830e-04 ADIIS/DIIS
   @DF-RKS iter   6:  -155.91913557874730   -3.85660e-05   2.11254e-05 DIIS
   @DF-RKS iter   7:  -155.91913664704663   -1.06830e-06   2.11984e-06 DIIS
   @DF-RKS iter   8:  -155.91913665996691   -1.29203e-08   3.00365e-07 DIIS
   @DF-RKS iter   9:  -155.91913666025840   -2.91493e-10   2.15973e-08 DIIS
   @DF-RKS iter  10:  -155.91913666026005   -1.64846e-12   5.86208e-09 DIIS
  Energy and wave function converged.


  ==> Post-Iterations <==

   Electrons on quadrature grid:
      Ntotal   =   29.9999869415 ; deviation = -1.306e-05 

    Orbital Energies [Eh]
    ---------------------

    Doubly Occupied:                                                      

       1A    -10.181693     1B    -10.181339     2B    -10.168696  
       2A    -10.168691     3A     -0.827928     3B     -0.731895  
       4A     -0.624571     4B     -0.540146     5A     -0.506468  
       6A     -0.446568     5B     -0.423775     6B     -0.379671  
       7A     -0.352560     7B     -0.316855     8A     -0.243656  

    Virtual:                                                              

       8B     -0.034739     9A      0.026733    10A      0.034997  
       9B      0.042771    11A      0.046445    10B      0.057834  
      11B      0.082626    12A      0.083319    13A      0.103993  
      12B      0.106322    14A      0.112217    15A      0.124972  
      13B      0.135669    14B      0.146556    16A      0.164099  
      15B      0.168571    17A      0.181044    16B      0.191609  
      18A      0.218945    17B      0.245721    18B      0.251428  
      19A      0.253627    19B      0.276428    20A      0.325533  
      21A      0.342791    20B      0.413965    21B      0.436454  
      22A      0.568675    23A      0.661748    22B      0.674474  
      23B      0.696496    24A      0.715333    25A      0.747494  
      24B      0.747950    26A      0.779610    25B      0.832748  
      27A      0.856979    26B      0.892120    27B      0.944704  
      28A      0.955381    28B      0.989490    29A      0.997403  
      29B      1.019031    30A      1.075291    30B      1.091379  
      31A      1.151294    31B      1.206290    32B      1.223202  
      32A      1.275118    33B      1.497612    33A      1.500855  
      34B      1.552020    34A      1.660287    35B      1.757864  
      35A      1.816984    36A      1.906722    37A      2.026132  
      36B      2.078599    37B      2.166351    38A      2.179371  
      38B      2.245425    39A      2.323901    39B      2.371806  
      40A      2.474775    40B      2.573925    41A      2.626515  
      42A      2.714590    41B      2.870431    42B      3.037292  
      43B      4.233939    43A      4.245461    44A      4.262626  
      44B      4.460749  

    Final Occupation by Irrep:
              A     B 
    DOCC [     8,    7 ]
    NA   [     8,    7 ]
    NB   [     8,    7 ]

  @DF-RKS Final Energy:  -155.91913666026005

   => Energetics <=

    Nuclear Repulsion Energy =            108.0984963743115372
    One-Electron Energy =                -422.0333938617558260
    Two-Electron Energy =                 177.3090071143603552
    DFT Exchange-Correlation Energy =     -19.2932462871761210
    Empirical Dispersion Energy =           0.0000000000000000
    VV10 Nonlocal Energy =                  0.0000000000000000
    Total Energy =                       -155.9191366602600510

Computation Completed


Properties will be evaluated at   0.000000,   0.000000,   0.000000 [a0]

Properties computed using the SCF density matrix


 Multipole Moments:

 ------------------------------------------------------------------------------------
     Multipole            Electronic (a.u.)      Nuclear  (a.u.)        Total (a.u.)
 ------------------------------------------------------------------------------------

 L = 1.  Multiply by 2.5417464519 to convert [e a0] to [Debye]
 Dipole X            :          0.0000000           -0.0000000           -0.0000000
 Dipole Y            :          0.0000000            0.0000000            0.0000000
 Dipole Z            :          1.1111002           -1.0787387            0.0323615
 Magnitude           :                                                    0.0323615

 ------------------------------------------------------------------------------------

*** tstop() called on Barrys-MacBook-Pro.local at Wed May 22 18:25:52 2024
Module time:
	user time   =      10.52 seconds =       0.18 minutes
	system time =       0.50 seconds =       0.01 minutes
	total time  =          3 seconds =       0.05 minutes
Total time:
	user time   =    1198.51 seconds =      19.98 minutes
	system time =      47.97 seconds =       0.80 minutes
	total time  =       6821 seconds =     113.68 minutes

*** tstart() called on Barrys-MacBook-Pro.local
*** at Wed May 22 18:25:52 2024


         ------------------------------------------------------------
                                   SCF GRAD                          
                          Rob Parrish, Justin Turney,                
                       Andy Simmonett, and Alex Sokolov              
         ------------------------------------------------------------

  ==> Geometry <==

    Molecular point group: c2
    Full point group: C2

    Geometry (in Angstrom), charge = 0, multiplicity = 1:

       Center              X                  Y                   Z               Mass       
    ------------   -----------------  -----------------  -----------------  -----------------
         C            1.319617982398     0.307625417926    -0.544629225561    12.000000000000
         C            0.728953949372     0.000000000000     0.592949904609    12.000000000000
         C           -0.728953949372     0.000000000000     0.592949904609    12.000000000000
         C           -1.319617982398    -0.307625417926    -0.544629225561    12.000000000000
         H            2.391683955968     0.260350426648    -0.644539524982     1.007825032230
         H            0.788876071580     0.674387802650    -1.398652574963     1.007825032230
         H            1.288680959815    -0.281470705840     1.467846052735     1.007825032230
         H           -1.288680959815     0.281470705840     1.467846052735     1.007825032230
         H           -2.391683955968    -0.260350426648    -0.644539524982     1.007825032230
         H           -0.788876071580    -0.674387802650    -1.398652574963     1.007825032230

  Nuclear repulsion =  108.098496374311523

  ==> Basis Set <==

  Basis Set: 6-31+G(D)
    Blend: 6-31+G(D)
    Number of shells: 44
    Number of basis functions: 88
    Number of Cartesian functions: 88
    Spherical Harmonics?: false
    Max angular momentum: 2

  ==> DFJKGrad: Density-Fitted SCF Gradients <==

    Gradient:                    1
    J tasked:                  Yes
    K tasked:                  Yes
    wK tasked:                  No
    OpenMP threads:              4
    Integrals threads:           4
    Memory [MiB]:             1430
    Schwarz Cutoff:          1E-12
    Fitting Condition:       1E-10

   => Auxiliary Basis Set <=

  Basis Set: (6-31+G(D) AUX)
    Blend: HEAVY-AUG-CC-PVDZ-JKFIT
    Number of shells: 166
    Number of basis functions: 554
    Number of Cartesian functions: 554
    Spherical Harmonics?: false
    Max angular momentum: 3

  ==> DFT Potential <==

   => LibXC <=

    Version 6.2.2
    S. Lehtola, C. Steigemann, M. J.T. Oliveira, and M. A.L. Marques.,  SoftwareX 7, 1–5 (2018) (10.1016/j.softx.2017.11.002)

   => Composite Functional: B3PW91 <= 

    B3PW91 Hyb-GGA Exchange-Correlation Functional

    A. D. Becke.,  J. Chem. Phys. 98, 5648 (1993) (10.1063/1.464913)

    Deriv               =              1
    GGA                 =           TRUE
    Meta                =          FALSE

    Exchange Hybrid     =           TRUE
    MP2 Hybrid          =          FALSE

   => Exchange Functionals <=

    0.0800   Slater exchange
    0.7200         Becke 88

   => Exact (HF) Exchange <=

    0.2000               HF 

   => Correlation Functionals <=

    0.1900    Perdew & Wang
    0.8100   Perdew & Wang 91

   => LibXC Density Thresholds  <==

    XC_HYB_GGA_XC_B3PW91:  1.00E-15 

   => Molecular Quadrature <=

    Radial Scheme          =       TREUTLER
    Pruning Scheme         =           NONE
    Nuclear Scheme         =       TREUTLER

    Blocking Scheme        =         OCTREE
    BS radius alpha        =              1
    Pruning alpha          =              1
    Radial Points          =             75
    Spherical Points       =            302
    Total Points           =         216452
    Total Blocks           =           1648
    Max Points             =            256
    Max Functions          =             88
    Weights Tolerance      =       1.00E-15


  -Total Gradient:
     Atom            X                  Y                   Z
    ------   -----------------  -----------------  -----------------
       1       -0.035285193133    -0.007843949466     0.007775993590
       2        0.015575300873     0.002057693621    -0.009004533174
       3       -0.015575300873    -0.002057693621    -0.009004533174
       4        0.035285193133     0.007843949466     0.007775993590
       5       -0.008427453205     0.000446967831     0.001137865236
       6        0.005388432839    -0.003596812369     0.007539846153
       7       -0.004430356160     0.001899545733    -0.007450362382
       8        0.004430356160    -0.001899545733    -0.007450362382
       9        0.008427453205    -0.000446967831     0.001137865236
      10       -0.005388432839     0.003596812369     0.007539846153


*** tstop() called on Barrys-MacBook-Pro.local at Wed May 22 18:25:53 2024
Module time:
	user time   =       2.88 seconds =       0.05 minutes
	system time =       0.07 seconds =       0.00 minutes
	total time  =          1 seconds =       0.02 minutes
Total time:
	user time   =    1201.40 seconds =      20.02 minutes
	system time =      48.04 seconds =       0.80 minutes
	total time  =       6822 seconds =     113.70 minutes

    			-----------------------------------------

    			 OPTKING 3.0: for geometry optimizations 

    			     By R.A. King, Bethel University     

    			        with contributions from          

    			    A.V. Copan, J. Cayton, A. Heide      

    			-----------------------------------------

    
	                            ===> Fragment 1 <== 

	 Z (Atomic Numbers)          Masses                          Geom                  
	       6.000000            12.000000          2.49371658  0.58132779 -1.02920008   
	       6.000000            12.000000          1.37752332  0.00000000  1.12051293   
	       6.000000            12.000000         -1.37752332  0.00000000  1.12051293   
	       6.000000            12.000000         -2.49371658 -0.58132779 -1.02920008   
	       1.000000             1.007825          4.51962766  0.49199100 -1.21800318   
	       1.000000             1.007825          1.49075972  1.27440825 -2.64307031   
	       1.000000             1.007825          2.43525408 -0.53190255  2.77382703   
	       1.000000             1.007825         -2.43525408  0.53190255  2.77382703   
	       1.000000             1.007825         -4.51962766 -0.49199100 -1.21800318   
	       1.000000             1.007825         -1.49075972 -1.27440825 -2.64307031   

	 - Coordinate -           - BOHR/RAD -       - ANG/DEG -
	 R(1,2)           =         2.491003           1.318182
	 R(1,5)           =         2.036650           1.077749
	 R(1,6)           =         2.022587           1.070307
	 R(2,3)           =         2.755047           1.457908
	 R(2,7)           =         2.033510           1.076087
	 R(3,4)           =         2.491003           1.318182
	 R(3,8)           =         2.033510           1.076087
	 R(4,9)           =         2.036650           1.077749
	 R(4,10)          =         2.022587           1.070307
	 B(1,2,3)         =         2.035424         116.621200
	 B(1,2,7)         =         2.128937         121.979113
	 B(2,1,5)         =         2.112378         121.030355
	 B(2,1,6)         =         2.148823         123.118481
	 B(2,3,4)         =         2.035424         116.621200
	 B(2,3,8)         =         2.117823         121.342334
	 B(3,2,7)         =         2.117823         121.342334
	 B(3,4,9)         =         2.112378         121.030355
	 B(3,4,10)        =         2.148823         123.118481
	 B(4,3,8)         =         2.128937         121.979113
	 B(5,1,6)         =         2.020085         115.742336
	 B(9,4,10)        =         2.020085         115.742336
	 D(1,2,3,4)       =         0.528209          30.264123
	 D(1,2,3,8)       =        -2.566227        -147.033969
	 D(2,3,4,9)       =        -3.063858        -175.546139
	 D(2,3,4,10)      =         0.146782           8.409972
	 D(3,2,1,5)       =        -3.063858        -175.546139
	 D(3,2,1,6)       =         0.146782           8.409972
	 D(4,3,2,7)       =        -2.566227        -147.033969
	 D(5,1,2,7)       =         0.030253           1.733357
	 D(6,1,2,7)       =        -3.042293        -174.310531
	 D(7,2,3,8)       =         0.622523          35.667939
	 D(8,3,4,9)       =         0.030253           1.733357
	 D(8,3,4,10)      =        -3.042293        -174.310531
	[R(1,4)[2.490,2.510]=         5.121158           2.710000


	        --- Internal Coordinate Step in ANG or DEG, aJ/ANG or AJ/DEG ---
	-------------------------------------------------------------------------------
	           Coordinate      Previous         Force          Change          New 
	           ----------      --------        ------          ------        ------
	               R(1,2)       1.31818        0.14993        0.00522       1.32341
	               R(1,5)       1.07775        0.07010        0.01233       1.09008
	               R(1,6)       1.07031        0.08173        0.01402       1.08433
	               R(2,3)       1.45791       -0.03414       -0.02800       1.42991
	               R(2,7)       1.07609        0.07298        0.01276       1.08885
	               R(3,4)       1.31818        0.14993        0.00522       1.32341
	               R(3,8)       1.07609        0.07298        0.01276       1.08885
	               R(4,9)       1.07775        0.07010        0.01233       1.09008
	              R(4,10)       1.07031        0.08173        0.01402       1.08433
	             B(1,2,3)     116.62120       -0.00024       -4.18188     112.43932
	             B(1,2,7)     121.97911        0.00014        2.14284     124.12195
	             B(2,1,5)     121.03036        0.00006        0.28602     121.31637
	             B(2,1,6)     123.11848       -0.00008       -0.35419     122.76429
	             B(2,3,4)     116.62120       -0.00024       -4.18188     112.43932
	             B(2,3,8)     121.34233        0.00010        2.01385     123.35619
	             B(3,2,7)     121.34233        0.00010        2.01385     123.35619
	             B(3,4,9)     121.03036        0.00006        0.28602     121.31637
	            B(3,4,10)     123.11848       -0.00008       -0.35419     122.76429
	             B(4,3,8)     121.97911        0.00014        2.14284     124.12195
	             B(5,1,6)     115.74234        0.00001        0.06164     115.80398
	            B(9,4,10)     115.74234        0.00001        0.06164     115.80398
	           D(1,2,3,4)      30.26412       -0.00006       -1.93616      28.32797
	           D(1,2,3,8)    -147.03397       -0.00004       -1.45368    -148.48765
	           D(2,3,4,9)    -175.54614        0.00002        0.51655    -175.02959
	          D(2,3,4,10)       8.40997        0.00003        0.63043       9.04040
	           D(3,2,1,5)    -175.54614        0.00002        0.51655    -175.02959
	           D(3,2,1,6)       8.40997        0.00003        0.63043       9.04040
	           D(4,3,2,7)    -147.03397       -0.00004       -1.45368    -148.48765
	           D(5,1,2,7)       1.73336        0.00000        0.02408       1.75744
	           D(6,1,2,7)    -174.31053        0.00001        0.13797    -174.17256
	           D(7,2,3,8)      35.66794       -0.00002       -0.97121      34.69673
	           D(8,3,4,9)       1.73336        0.00000        0.02408       1.75744
	          D(8,3,4,10)    -174.31053        0.00001        0.13797    -174.17256
	 [R(1,4)[2.490,2.510]       2.71000        0.00000       -0.19743       2.51257
	-------------------------------------------------------------------------------

	                                 ==> Convergence Check <==                                  
    
	Measures of convergence in internal coordinates in au.
    
	Criteria marked as inactive (o), active & met (*), and active & unmet ( ).

	----------------------------------------------------------------------------------------------
	   Step    Total Energy     Delta E     Max Force     RMS Force      Max Disp      RMS Disp   
	----------------------------------------------------------------------------------------------
	  Convergence Criteria     1.00e-06 *    3.00e-04 *             o    1.20e-03 *             o
	----------------------------------------------------------------------------------------------
	     1    -155.91913666   -1.56e+02      1.82e-02      5.97e-03 o    3.73e-01      6.97e-02 o  ~
	----------------------------------------------------------------------------------------------

Next Geometry in Ang 
	Fragment 1 (Ang)

	    C   1.2249221696   0.2789496305  -0.5517834884
	    C   0.7148559055  -0.0119095448   0.6342339082
	    C  -0.7148559055   0.0119095448   0.6342339082
	    C  -1.2249221696  -0.2789496305  -0.5517834884
	    H   2.2979424440   0.2243240007  -0.7359240235
	    H   0.6226184485   0.6447808975  -1.3758949872
	    H   1.3089511234  -0.2930348737   1.5023432227
	    H  -1.3089511234   0.2930348737   1.5023432227
	    H  -2.2979424440  -0.2243240007  -0.7359240235
	    H  -0.6226184485  -0.6447808975  -1.3758949872


    Structure for next step:
    Molecular point group: c2
    Full point group: C2

    Geometry (in Angstrom), charge = 0, multiplicity = 1:

    C       
    C             1         CC1
    C             2         CC2      1       A_321
    C             3         CC1      2       A_321      1    dihedral
    H             1      CH_5_9      2      CH_512      3          D3
    H             1     CH_6_10      5      CH_615      2          D2
    H             2      CH_7_8      1      CH_721      3          D1
    H             3      CH_7_8      4      CH_721      2          D1
    H             4      CH_5_9      3      CH_512      2          D3
    H             4     CH_6_10      9      CH_615      3          D2

    A_321     =  112.4393191762
    CC1       =    1.3234061805
    CC2       =    1.4299102109
    CH_512    =  121.3163738266
    CH_5_9    =    1.0900753209
    CH_615    =  115.8039765220
    CH_6_10   =    1.0843256203
    CH_721    =  124.1219489910
    CH_7_8    =    1.0888500175
    D1        =  176.7870349901
    D2        =  176.1988748070
    D3        = -175.0295928890
    dihedral  =   28.3279656666


Scratch directory: /tmp/
gradient() will perform analytic gradient computation.
   => Libint2 <=

    Primary   basis highest AM E, G, H:  5, 4, 3
    Auxiliary basis highest AM E, G, H:  6, 5, 4
    Onebody   basis highest AM E, G, H:  6, 5, 4
    Solid Harmonics ordering:            Gaussian

*** tstart() called on Barrys-MacBook-Pro.local
*** at Wed May 22 18:25:53 2024

   => Loading Basis Set <=

    Name: 6-31+G(D)
    Role: ORBITAL
    Keyword: BASIS
    atoms 1-4  entry C          line   119 file /Users/blink/psi4conda/share/psi4/basis/6-31pg_d_.gbs 
    atoms 5-10 entry H          line    46 file /Users/blink/psi4conda/share/psi4/basis/6-31pg_d_.gbs 


         ---------------------------------------------------------
                                   SCF
               by Justin Turney, Rob Parrish, Andy Simmonett
                          and Daniel G. A. Smith
                              RKS Reference
                        4 Threads,   1907 MiB Core
         ---------------------------------------------------------

  ==> Geometry <==

    Molecular point group: c2
    Full point group: C2

    Geometry (in Angstrom), charge = 0, multiplicity = 1:

       Center              X                  Y                   Z               Mass       
    ------------   -----------------  -----------------  -----------------  -----------------
         C            1.220105537949     0.299315375839    -0.565666235922    12.000000000000
         C            0.714955105460     0.000000000000     0.620351160673    12.000000000000
         C           -0.714955105460     0.000000000000     0.620351160673    12.000000000000
         C           -1.220105537949    -0.299315375839    -0.565666235922    12.000000000000
         H            2.293886870944     0.262571430980    -0.749806770985     1.007825032230
         H            0.611791459954     0.655062857784    -1.389777734735     1.007825032230
         H            1.313650808736    -0.271190031991     1.488460475232     1.007825032230
         H           -1.313650808736     0.271190031991     1.488460475232     1.007825032230
         H           -2.293886870944    -0.262571430980    -0.749806770985     1.007825032230
         H           -0.611791459954    -0.655062857784    -1.389777734735     1.007825032230

  Running in c2 symmetry.

  Rotational constants: A =      0.60092  B =      0.25489  C =      0.18545 [cm^-1]
  Rotational constants: A =  18015.02437  B =   7641.40635  C =   5559.78586 [MHz]
  Nuclear repulsion =  109.579410535770279

  Charge       = 0
  Multiplicity = 1
  Electrons    = 30
  Nalpha       = 15
  Nbeta        = 15

  ==> Algorithm <==

  SCF Algorithm Type is DF.
  DIIS enabled.
  MOM disabled.
  Fractional occupation disabled.
  Guess Type is READ.
  Energy threshold   = 1.00e-08
  Density threshold  = 1.00e-08
  Integral threshold = 1.00e-12

  ==> Primary Basis <==

  Basis Set: 6-31+G(D)
    Blend: 6-31+G(D)
    Number of shells: 44
    Number of basis functions: 88
    Number of Cartesian functions: 88
    Spherical Harmonics?: false
    Max angular momentum: 2

  ==> DFT Potential <==

   => LibXC <=

    Version 6.2.2
    S. Lehtola, C. Steigemann, M. J.T. Oliveira, and M. A.L. Marques.,  SoftwareX 7, 1–5 (2018) (10.1016/j.softx.2017.11.002)

   => Composite Functional: B3PW91 <= 

    B3PW91 Hyb-GGA Exchange-Correlation Functional

    A. D. Becke.,  J. Chem. Phys. 98, 5648 (1993) (10.1063/1.464913)

    Deriv               =              1
    GGA                 =           TRUE
    Meta                =          FALSE

    Exchange Hybrid     =           TRUE
    MP2 Hybrid          =          FALSE

   => Exchange Functionals <=

    0.0800   Slater exchange
    0.7200         Becke 88

   => Exact (HF) Exchange <=

    0.2000               HF 

   => Correlation Functionals <=

    0.1900    Perdew & Wang
    0.8100   Perdew & Wang 91

   => LibXC Density Thresholds  <==

    XC_HYB_GGA_XC_B3PW91:  1.00E-15 

   => Molecular Quadrature <=

    Radial Scheme          =       TREUTLER
    Pruning Scheme         =           NONE
    Nuclear Scheme         =       TREUTLER

    Blocking Scheme        =         OCTREE
    BS radius alpha        =              1
    Pruning alpha          =              1
    Radial Points          =             75
    Spherical Points       =            302
    Total Points           =         216022
    Total Blocks           =           1638
    Max Points             =            256
    Max Functions          =             88
    Weights Tolerance      =       1.00E-15

   => Loading Basis Set <=

    Name: (6-31+G(D) AUX)
    Role: JKFIT
    Keyword: DF_BASIS_SCF
    atoms 1-4  entry C          line   194 file /Users/blink/psi4conda/share/psi4/basis/heavy-aug-cc-pvdz-jkfit.gbs 
    atoms 5-10 entry H          line   116 file /Users/blink/psi4conda/share/psi4/basis/heavy-aug-cc-pvdz-jkfit.gbs 

   => Loading Basis Set <=

    Name: 6-31+G(D)
    Role: ORBITAL
    Keyword: BASIS
    atoms 1-4  entry C          line   119 file /Users/blink/psi4conda/share/psi4/basis/6-31pg_d_.gbs 
    atoms 5-10 entry H          line    46 file /Users/blink/psi4conda/share/psi4/basis/6-31pg_d_.gbs 

  Reading orbitals from file /tmp/cyclobutene1.default.16013.180.npy, no projection.

  ==> Integral Setup <==

  DFHelper Memory: AOs need 0.036 GiB; user supplied 0.888 GiB. 
  Using in-core AOs.

  ==> MemDFJK: Density-Fitted J/K Matrices <==

    J tasked:                   Yes
    K tasked:                   Yes
    wK tasked:                   No
    OpenMP threads:               4
    Memory [MiB]:               909
    Algorithm:                 Core
    Schwarz Cutoff:           1E-12
    Mask sparsity (%):       0.0775
    Fitting Condition:        1E-10

   => Auxiliary Basis Set <=

  Basis Set: (6-31+G(D) AUX)
    Blend: HEAVY-AUG-CC-PVDZ-JKFIT
    Number of shells: 166
    Number of basis functions: 554
    Number of Cartesian functions: 554
    Spherical Harmonics?: false
    Max angular momentum: 3

  Cached 100.0% of DFT collocation blocks in 0.509 [GiB].

  Minimum eigenvalue in the overlap matrix is 1.1855729164E-04.
  Reciprocal condition number of the overlap matrix is 1.4469465411E-05.
    Using symmetric orthogonalization.

  ==> Pre-Iterations <==

  SCF Guess: Orbitals guess was supplied from a previous computation.

   -------------------------------------------------------
    Irrep   Nso     Nmo     Nalpha   Nbeta   Ndocc  Nsocc
   -------------------------------------------------------
     A         44      44       8       8       8       0
     B         44      44       7       7       7       0
   -------------------------------------------------------
    Total      88      88      15      15      15       0
   -------------------------------------------------------

  ==> Iterations <==

                           Total Energy        Delta E     RMS |[F,P]|

   @DF-RKS iter   0:  -155.87714348742159   -1.55877e+02   2.76692e-03 
   @DF-RKS iter   1:  -155.90195367707761   -2.48102e-02   6.03630e-04 ADIIS/DIIS
   @DF-RKS iter   2:  -155.90133535112949    6.18326e-04   8.52151e-04 ADIIS/DIIS
   @DF-RKS iter   3:  -155.90276839251416   -1.43304e-03   1.60758e-04 ADIIS/DIIS
   @DF-RKS iter   4:  -155.90281954897347   -5.11565e-05   3.66617e-05 DIIS
   @DF-RKS iter   5:  -155.90282238061496   -2.83164e-06   2.59696e-06 DIIS
   @DF-RKS iter   6:  -155.90282239716475   -1.65498e-08   4.67040e-07 DIIS
   @DF-RKS iter   7:  -155.90282239766333   -4.98574e-10   1.12715e-07 DIIS
   @DF-RKS iter   8:  -155.90282239769846   -3.51292e-11   1.40457e-08 DIIS
   @DF-RKS iter   9:  -155.90282239769905   -5.96856e-13   2.63067e-09 DIIS
  Energy and wave function converged.


  ==> Post-Iterations <==

   Electrons on quadrature grid:
      Ntotal   =   29.9999829211 ; deviation = -1.708e-05 

    Orbital Energies [Eh]
    ---------------------

    Doubly Occupied:                                                      

       1A    -10.181318     1B    -10.180890     2B    -10.169455  
       2A    -10.169450     3A     -0.838984     3B     -0.721166  
       4A     -0.628208     4B     -0.533462     5A     -0.509349  
       6A     -0.451127     5B     -0.416377     6B     -0.374157  
       7A     -0.356275     7B     -0.314463     8A     -0.237968  

    Virtual:                                                              

       8B     -0.038393     9A      0.026584    10A      0.032346  
       9B      0.043082    11A      0.046984    10B      0.057533  
      12A      0.081422    11B      0.082260    13A      0.103825  
      12B      0.108049    14A      0.109774    15A      0.124141  
      13B      0.135348    14B      0.145696    16A      0.164687  
      15B      0.169581    17A      0.179378    16B      0.192636  
      18A      0.218746    17B      0.242949    18B      0.248776  
      19A      0.251773    19B      0.275729    20A      0.317495  
      21A      0.337482    20B      0.407485    21B      0.441421  
      22A      0.573428    22B      0.682000    23A      0.697037  
      23B      0.710303    24A      0.716435    25A      0.743510  
      24B      0.745039    26A      0.782924    25B      0.827930  
      27A      0.861081    26B      0.878195    27B      0.932094  
      28A      0.953969    29A      0.983555    28B      0.986256  
      29B      0.995153    30A      1.072250    30B      1.095104  
      31A      1.145251    31B      1.182986    32B      1.224671  
      32A      1.274998    33B      1.473637    33A      1.504003  
      34B      1.575905    34A      1.686253    35B      1.791074  
      35A      1.828661    36A      1.885583    37A      2.042162  
      36B      2.088686    37B      2.164930    38A      2.202713  
      38B      2.236321    39A      2.333996    39B      2.369906  
      40A      2.471172    40B      2.581873    41A      2.623825  
      42A      2.718221    41B      2.877497    42B      3.019490  
      43B      4.216586    43A      4.265589    44A      4.270486  
      44B      4.453320  

    Final Occupation by Irrep:
              A     B 
    DOCC [     8,    7 ]
    NA   [     8,    7 ]
    NB   [     8,    7 ]

  @DF-RKS Final Energy:  -155.90282239769905

   => Energetics <=

    Nuclear Repulsion Energy =            109.5794105357702790
    One-Electron Energy =                -424.9910129053971559
    Two-Electron Energy =                 178.7966775839474565
    DFT Exchange-Correlation Energy =     -19.2878976120196661
    Empirical Dispersion Energy =           0.0000000000000000
    VV10 Nonlocal Energy =                  0.0000000000000000
    Total Energy =                       -155.9028223976990546

Computation Completed


Properties will be evaluated at   0.000000,   0.000000,   0.000000 [a0]

Properties computed using the SCF density matrix


 Multipole Moments:

 ------------------------------------------------------------------------------------
     Multipole            Electronic (a.u.)      Nuclear  (a.u.)        Total (a.u.)
 ------------------------------------------------------------------------------------

 L = 1.  Multiply by 2.5417464519 to convert [e a0] to [Debye]
 Dipole X            :          0.0000000           -0.0000000           -0.0000000
 Dipole Y            :          0.0000000            0.0000000            0.0000000
 Dipole Z            :          1.2518233           -1.2208178            0.0310055
 Magnitude           :                                                    0.0310055

 ------------------------------------------------------------------------------------

*** tstop() called on Barrys-MacBook-Pro.local at Wed May 22 18:25:55 2024
Module time:
	user time   =       9.79 seconds =       0.16 minutes
	system time =       0.49 seconds =       0.01 minutes
	total time  =          2 seconds =       0.03 minutes
Total time:
	user time   =    1211.93 seconds =      20.20 minutes
	system time =      48.54 seconds =       0.81 minutes
	total time  =       6824 seconds =     113.73 minutes

*** tstart() called on Barrys-MacBook-Pro.local
*** at Wed May 22 18:25:55 2024


         ------------------------------------------------------------
                                   SCF GRAD                          
                          Rob Parrish, Justin Turney,                
                       Andy Simmonett, and Alex Sokolov              
         ------------------------------------------------------------

  ==> Geometry <==

    Molecular point group: c2
    Full point group: C2

    Geometry (in Angstrom), charge = 0, multiplicity = 1:

       Center              X                  Y                   Z               Mass       
    ------------   -----------------  -----------------  -----------------  -----------------
         C            1.220105537949     0.299315375839    -0.565666235922    12.000000000000
         C            0.714955105460     0.000000000000     0.620351160673    12.000000000000
         C           -0.714955105460     0.000000000000     0.620351160673    12.000000000000
         C           -1.220105537949    -0.299315375839    -0.565666235922    12.000000000000
         H            2.293886870944     0.262571430980    -0.749806770985     1.007825032230
         H            0.611791459954     0.655062857784    -1.389777734735     1.007825032230
         H            1.313650808736    -0.271190031991     1.488460475232     1.007825032230
         H           -1.313650808736     0.271190031991     1.488460475232     1.007825032230
         H           -2.293886870944    -0.262571430980    -0.749806770985     1.007825032230
         H           -0.611791459954    -0.655062857784    -1.389777734735     1.007825032230

  Nuclear repulsion =  109.579410535770265

  ==> Basis Set <==

  Basis Set: 6-31+G(D)
    Blend: 6-31+G(D)
    Number of shells: 44
    Number of basis functions: 88
    Number of Cartesian functions: 88
    Spherical Harmonics?: false
    Max angular momentum: 2

  ==> DFJKGrad: Density-Fitted SCF Gradients <==

    Gradient:                    1
    J tasked:                  Yes
    K tasked:                  Yes
    wK tasked:                  No
    OpenMP threads:              4
    Integrals threads:           4
    Memory [MiB]:             1430
    Schwarz Cutoff:          1E-12
    Fitting Condition:       1E-10

   => Auxiliary Basis Set <=

  Basis Set: (6-31+G(D) AUX)
    Blend: HEAVY-AUG-CC-PVDZ-JKFIT
    Number of shells: 166
    Number of basis functions: 554
    Number of Cartesian functions: 554
    Spherical Harmonics?: false
    Max angular momentum: 3

  ==> DFT Potential <==

   => LibXC <=

    Version 6.2.2
    S. Lehtola, C. Steigemann, M. J.T. Oliveira, and M. A.L. Marques.,  SoftwareX 7, 1–5 (2018) (10.1016/j.softx.2017.11.002)

   => Composite Functional: B3PW91 <= 

    B3PW91 Hyb-GGA Exchange-Correlation Functional

    A. D. Becke.,  J. Chem. Phys. 98, 5648 (1993) (10.1063/1.464913)

    Deriv               =              1
    GGA                 =           TRUE
    Meta                =          FALSE

    Exchange Hybrid     =           TRUE
    MP2 Hybrid          =          FALSE

   => Exchange Functionals <=

    0.0800   Slater exchange
    0.7200         Becke 88

   => Exact (HF) Exchange <=

    0.2000               HF 

   => Correlation Functionals <=

    0.1900    Perdew & Wang
    0.8100   Perdew & Wang 91

   => LibXC Density Thresholds  <==

    XC_HYB_GGA_XC_B3PW91:  1.00E-15 

   => Molecular Quadrature <=

    Radial Scheme          =       TREUTLER
    Pruning Scheme         =           NONE
    Nuclear Scheme         =       TREUTLER

    Blocking Scheme        =         OCTREE
    BS radius alpha        =              1
    Pruning alpha          =              1
    Radial Points          =             75
    Spherical Points       =            302
    Total Points           =         216022
    Total Blocks           =           1638
    Max Points             =            256
    Max Functions          =             88
    Weights Tolerance      =       1.00E-15


  -Total Gradient:
     Atom            X                  Y                   Z
    ------   -----------------  -----------------  -----------------
       1       -0.054509401020    -0.015276549322     0.012253552511
       2       -0.008208954802    -0.000657790523    -0.011080421194
       3        0.008208954802     0.000657790523    -0.011080421194
       4        0.054509401020     0.015276549322     0.012253552511
       5       -0.000717661773     0.000908782877     0.000538815499
       6       -0.007276177225    -0.004406494406    -0.003267148725
       7       -0.000798738877    -0.001012274133     0.001551056215
       8        0.000798738877     0.001012274133     0.001551056215
       9        0.000717661773    -0.000908782877     0.000538815499
      10        0.007276177225     0.004406494406    -0.003267148725


*** tstop() called on Barrys-MacBook-Pro.local at Wed May 22 18:25:56 2024
Module time:
	user time   =       3.11 seconds =       0.05 minutes
	system time =       0.09 seconds =       0.00 minutes
	total time  =          1 seconds =       0.02 minutes
Total time:
	user time   =    1215.05 seconds =      20.25 minutes
	system time =      48.63 seconds =       0.81 minutes
	total time  =       6825 seconds =     113.75 minutes

    			-----------------------------------------

    			 OPTKING 3.0: for geometry optimizations 

    			     By R.A. King, Bethel University     

    			        with contributions from          

    			    A.V. Copan, J. Cayton, A. Heide      

    			-----------------------------------------

    
	                            ===> Fragment 1 <== 

	 Z (Atomic Numbers)          Masses                          Geom                  
	       6.000000            12.000000          2.30566531  0.56562409 -1.06895426   
	       6.000000            12.000000          1.35106934  0.00000000  1.17229380   
	       6.000000            12.000000         -1.35106934  0.00000000  1.17229380   
	       6.000000            12.000000         -2.30566531 -0.56562409 -1.06895426   
	       1.000000             1.007825          4.33481795  0.49618809 -1.41692944   
	       1.000000             1.007825          1.15611831  1.23788940 -2.62629929   
	       1.000000             1.007825          2.48244025 -0.51247489  2.81278265   
	       1.000000             1.007825         -2.48244025  0.51247489  2.81278265   
	       1.000000             1.007825         -4.33481795 -0.49618809 -1.41692944   
	       1.000000             1.007825         -1.15611831 -1.23788940 -2.62629929   

	 - Coordinate -           - BOHR/RAD -       - ANG/DEG -
	 R(1,2)           =         2.500875           1.323406
	 R(1,5)           =         2.059944           1.090075
	 R(1,6)           =         2.049078           1.084326
	 R(2,3)           =         2.702139           1.429910
	 R(2,7)           =         2.057628           1.088850
	 R(3,4)           =         2.500875           1.323406
	 R(3,8)           =         2.057628           1.088850
	 R(4,9)           =         2.059944           1.090075
	 R(4,10)          =         2.049078           1.084326
	 B(1,2,3)         =         1.962436         112.439319
	 B(1,2,7)         =         2.166337         124.121949
	 B(2,1,5)         =         2.117370         121.316374
	 B(2,1,6)         =         2.142641         122.764292
	 B(2,3,4)         =         1.962436         112.439319
	 B(2,3,8)         =         2.152972         123.356189
	 B(3,2,7)         =         2.152972         123.356189
	 B(3,4,9)         =         2.117370         121.316374
	 B(3,4,10)        =         2.142641         122.764292
	 B(4,3,8)         =         2.166337         124.121949
	 B(5,1,6)         =         2.021161         115.803977
	 B(9,4,10)        =         2.021161         115.803977
	 D(1,2,3,4)       =         0.494416          28.327966
	 D(1,2,3,8)       =        -2.591598        -148.487653
	 D(2,3,4,9)       =        -3.054843        -175.029593
	 D(2,3,4,10)      =         0.157785           9.040405
	 D(3,2,1,5)       =        -3.054843        -175.029593
	 D(3,2,1,6)       =         0.157785           9.040405
	 D(4,3,2,7)       =        -2.591598        -148.487653
	 D(5,1,2,7)       =         0.030673           1.757442
	 D(6,1,2,7)       =        -3.039885        -174.172560
	 D(7,2,3,8)       =         0.605572          34.696729
	 D(8,3,4,9)       =         0.030673           1.757442
	 D(8,3,4,10)      =        -3.039885        -174.172560
	[R(1,4)[2.490,2.510]=         4.748062           2.512566


	        --- Internal Coordinate Step in ANG or DEG, aJ/ANG or AJ/DEG ---
	-------------------------------------------------------------------------------
	           Coordinate      Previous         Force          Change          New 
	           ----------      --------        ------          ------        ------
	               R(1,2)       1.32341        0.07127        0.00869       1.33210
	               R(1,5)       1.09008        0.00683        0.00258       1.09266
	               R(1,6)       1.08433       -0.04217       -0.00382       1.08050
	               R(2,3)       1.42991        0.06165        0.00821       1.43812
	               R(2,7)       1.08885       -0.00865        0.00051       1.08936
	               R(3,4)       1.32341        0.07127        0.00869       1.33210
	               R(3,8)       1.08885       -0.00865        0.00051       1.08936
	               R(4,9)       1.09008        0.00683        0.00258       1.09266
	              R(4,10)       1.08433       -0.04217       -0.00382       1.08050
	             B(1,2,3)     112.43932       -0.00027       -0.60844     111.83088
	             B(1,2,7)     124.12195        0.00002       -0.03207     124.08988
	             B(2,1,5)     121.31637       -0.00021       -0.65379     120.66258
	             B(2,1,6)     122.76429        0.00043        1.23958     124.00387
	             B(2,3,4)     112.43932       -0.00027       -0.60844     111.83088
	             B(2,3,8)     123.35619        0.00025        0.63113     123.98732
	             B(3,2,7)     123.35619        0.00025        0.63113     123.98732
	             B(3,4,9)     121.31637       -0.00021       -0.65379     120.66258
	            B(3,4,10)     122.76429        0.00043        1.23958     124.00387
	             B(4,3,8)     124.12195        0.00002       -0.03207     124.08988
	             B(5,1,6)     115.80398       -0.00024       -0.74777     115.05621
	            B(9,4,10)     115.80398       -0.00024       -0.74777     115.05621
	           D(1,2,3,4)      28.32797        0.00015        1.34286      29.67082
	           D(1,2,3,8)    -148.48765        0.00018        1.52456    -146.96309
	           D(2,3,4,9)    -175.02959        0.00008        0.58780    -174.44179
	          D(2,3,4,10)       9.04040        0.00041        2.87143      11.91183
	           D(3,2,1,5)    -175.02959        0.00008        0.58780    -174.44179
	           D(3,2,1,6)       9.04040        0.00041        2.87143      11.91183
	           D(4,3,2,7)    -148.48765        0.00018        1.52456    -146.96309
	           D(5,1,2,7)       1.75744        0.00006        0.43060       2.18804
	           D(6,1,2,7)    -174.17256        0.00039        2.71423    -171.45833
	           D(7,2,3,8)      34.69673        0.00021        1.70626      36.40299
	           D(8,3,4,9)       1.75744        0.00006        0.43060       2.18804
	          D(8,3,4,10)    -174.17256        0.00039        2.71423    -171.45833
	 [R(1,4)[2.490,2.510]       2.51257        0.00000       -0.00253       2.51003
	-------------------------------------------------------------------------------

	                                 ==> Convergence Check <==                                  
    
	Measures of convergence in internal coordinates in au.
    
	Criteria marked as inactive (o), active & met (*), and active & unmet ( ).

	----------------------------------------------------------------------------------------------
	   Step    Total Energy     Delta E     Max Force     RMS Force      Max Disp      RMS Disp   
	----------------------------------------------------------------------------------------------
	  Convergence Criteria     1.00e-06 *    3.00e-04 *             o    1.20e-03 *             o
	----------------------------------------------------------------------------------------------
	     2    -155.90282240    1.63e-02      8.65e-03      4.00e-03 o    5.01e-02      2.15e-02 o  ~
	----------------------------------------------------------------------------------------------

Next Geometry in Ang 
	Fragment 1 (Ang)

	    C   1.2164997181   0.3085375586  -0.5696347627
	    C   0.7190417357  -0.0047783408   0.6257120298
	    C  -0.7190417357   0.0047783408   0.6257120298
	    C  -1.2164997181  -0.3085375586  -0.5696347627
	    H   2.2917795641   0.2567650364  -0.7566984565
	    H   0.6303239012   0.7182385923  -1.3795913721
	    H   1.3261169671  -0.2909599099   1.4837734558
	    H  -1.3261169671   0.2909599099   1.4837734558
	    H  -2.2917795641  -0.2567650364  -0.7566984565
	    H  -0.6303239012  -0.7182385923  -1.3795913721


    Structure for next step:
    Molecular point group: c2
    Full point group: C2

    Geometry (in Angstrom), charge = 0, multiplicity = 1:

    C       
    C             1         CC1
    C             2         CC2      1       A_321
    C             3         CC1      2       A_321      1    dihedral
    H             1      CH_5_9      2      CH_512      3          D3
    H             1     CH_6_10      5      CH_615      2          D2
    H             2      CH_7_8      1      CH_721      3          D1
    H             3      CH_7_8      4      CH_721      2          D1
    H             4      CH_5_9      3      CH_512      2          D3
    H             4     CH_6_10      9      CH_615      3          D2

    A_321     =  111.8308810138
    CC1       =    1.3320980637
    CC2       =    1.4381152251
    CH_512    =  120.6625837994
    CH_5_9    =    1.0926572961
    CH_615    =  115.0562089283
    CH_6_10   =    1.0805030007
    CH_721    =  124.0898811133
    CH_7_8    =    1.0893620325
    D1        =  176.6298384816
    D2        =  174.1876209732
    D3        = -174.4417937070
    dihedral  =   29.6708231579


Scratch directory: /tmp/
gradient() will perform analytic gradient computation.
   => Libint2 <=

    Primary   basis highest AM E, G, H:  5, 4, 3
    Auxiliary basis highest AM E, G, H:  6, 5, 4
    Onebody   basis highest AM E, G, H:  6, 5, 4
    Solid Harmonics ordering:            Gaussian

*** tstart() called on Barrys-MacBook-Pro.local
*** at Wed May 22 18:25:56 2024

   => Loading Basis Set <=

    Name: 6-31+G(D)
    Role: ORBITAL
    Keyword: BASIS
    atoms 1-4  entry C          line   119 file /Users/blink/psi4conda/share/psi4/basis/6-31pg_d_.gbs 
    atoms 5-10 entry H          line    46 file /Users/blink/psi4conda/share/psi4/basis/6-31pg_d_.gbs 


         ---------------------------------------------------------
                                   SCF
               by Justin Turney, Rob Parrish, Andy Simmonett
                          and Daniel G. A. Smith
                              RKS Reference
                        4 Threads,   1907 MiB Core
         ---------------------------------------------------------

  ==> Geometry <==

    Molecular point group: c2
    Full point group: C2

    Geometry (in Angstrom), charge = 0, multiplicity = 1:

       Center              X                  Y                   Z               Mass       
    ------------   -----------------  -----------------  -----------------  -----------------
         C            1.214422538472     0.316614729991    -0.570201117329    12.000000000000
         C            0.719057612547     0.000000000000     0.625145675134    12.000000000000
         C           -0.719057612547     0.000000000000     0.625145675134    12.000000000000
         C           -1.214422538472    -0.316614729991    -0.570201117329    12.000000000000
         H            2.290022685125     0.271988889029    -0.757264811189     1.007825032230
         H            0.625537085404     0.722411413703    -1.380157726715     1.007825032230
         H            1.328021196970    -0.282141063931     1.483207101123     1.007825032230
         H           -1.328021196970     0.282141063931     1.483207101123     1.007825032230
         H           -2.290022685125    -0.271988889029    -0.757264811189     1.007825032230
         H           -0.625537085404    -0.722411413703    -1.380157726715     1.007825032230

  Running in c2 symmetry.

  Rotational constants: A =      0.59112  B =      0.25355  C =      0.18486 [cm^-1]
  Rotational constants: A =  17721.33572  B =   7601.25838  C =   5541.90743 [MHz]
  Nuclear repulsion =  109.125387768514344

  Charge       = 0
  Multiplicity = 1
  Electrons    = 30
  Nalpha       = 15
  Nbeta        = 15

  ==> Algorithm <==

  SCF Algorithm Type is DF.
  DIIS enabled.
  MOM disabled.
  Fractional occupation disabled.
  Guess Type is READ.
  Energy threshold   = 1.00e-08
  Density threshold  = 1.00e-08
  Integral threshold = 1.00e-12

  ==> Primary Basis <==

  Basis Set: 6-31+G(D)
    Blend: 6-31+G(D)
    Number of shells: 44
    Number of basis functions: 88
    Number of Cartesian functions: 88
    Spherical Harmonics?: false
    Max angular momentum: 2

  ==> DFT Potential <==

   => LibXC <=

    Version 6.2.2
    S. Lehtola, C. Steigemann, M. J.T. Oliveira, and M. A.L. Marques.,  SoftwareX 7, 1–5 (2018) (10.1016/j.softx.2017.11.002)

   => Composite Functional: B3PW91 <= 

    B3PW91 Hyb-GGA Exchange-Correlation Functional

    A. D. Becke.,  J. Chem. Phys. 98, 5648 (1993) (10.1063/1.464913)

    Deriv               =              1
    GGA                 =           TRUE
    Meta                =          FALSE

    Exchange Hybrid     =           TRUE
    MP2 Hybrid          =          FALSE

   => Exchange Functionals <=

    0.0800   Slater exchange
    0.7200         Becke 88

   => Exact (HF) Exchange <=

    0.2000               HF 

   => Correlation Functionals <=

    0.1900    Perdew & Wang
    0.8100   Perdew & Wang 91

   => LibXC Density Thresholds  <==

    XC_HYB_GGA_XC_B3PW91:  1.00E-15 

   => Molecular Quadrature <=

    Radial Scheme          =       TREUTLER
    Pruning Scheme         =           NONE
    Nuclear Scheme         =       TREUTLER

    Blocking Scheme        =         OCTREE
    BS radius alpha        =              1
    Pruning alpha          =              1
    Radial Points          =             75
    Spherical Points       =            302
    Total Points           =         216106
    Total Blocks           =           1644
    Max Points             =            256
    Max Functions          =             88
    Weights Tolerance      =       1.00E-15

   => Loading Basis Set <=

    Name: (6-31+G(D) AUX)
    Role: JKFIT
    Keyword: DF_BASIS_SCF
    atoms 1-4  entry C          line   194 file /Users/blink/psi4conda/share/psi4/basis/heavy-aug-cc-pvdz-jkfit.gbs 
    atoms 5-10 entry H          line   116 file /Users/blink/psi4conda/share/psi4/basis/heavy-aug-cc-pvdz-jkfit.gbs 

   => Loading Basis Set <=

    Name: 6-31+G(D)
    Role: ORBITAL
    Keyword: BASIS
    atoms 1-4  entry C          line   119 file /Users/blink/psi4conda/share/psi4/basis/6-31pg_d_.gbs 
    atoms 5-10 entry H          line    46 file /Users/blink/psi4conda/share/psi4/basis/6-31pg_d_.gbs 

  Reading orbitals from file /tmp/cyclobutene1.default.16013.180.npy, no projection.

  ==> Integral Setup <==

  DFHelper Memory: AOs need 0.036 GiB; user supplied 0.889 GiB. 
  Using in-core AOs.

  ==> MemDFJK: Density-Fitted J/K Matrices <==

    J tasked:                   Yes
    K tasked:                   Yes
    wK tasked:                   No
    OpenMP threads:               4
    Memory [MiB]:               909
    Algorithm:                 Core
    Schwarz Cutoff:           1E-12
    Mask sparsity (%):       0.0775
    Fitting Condition:        1E-10

   => Auxiliary Basis Set <=

  Basis Set: (6-31+G(D) AUX)
    Blend: HEAVY-AUG-CC-PVDZ-JKFIT
    Number of shells: 166
    Number of basis functions: 554
    Number of Cartesian functions: 554
    Spherical Harmonics?: false
    Max angular momentum: 3

  Cached 100.0% of DFT collocation blocks in 0.508 [GiB].

  Minimum eigenvalue in the overlap matrix is 1.2161214822E-04.
  Reciprocal condition number of the overlap matrix is 1.4858375232E-05.
    Using symmetric orthogonalization.

  ==> Pre-Iterations <==

  SCF Guess: Orbitals guess was supplied from a previous computation.

   -------------------------------------------------------
    Irrep   Nso     Nmo     Nalpha   Nbeta   Ndocc  Nsocc
   -------------------------------------------------------
     A         44      44       8       8       8       0
     B         44      44       7       7       7       0
   -------------------------------------------------------
    Total      88      88      15      15      15       0
   -------------------------------------------------------

  ==> Iterations <==

                           Total Energy        Delta E     RMS |[F,P]|

   @DF-RKS iter   0:  -155.88893977135888   -1.55889e+02   8.16760e-04 
   @DF-RKS iter   1:  -155.90405006666504   -1.51103e-02   1.94537e-04 ADIIS/DIIS
   @DF-RKS iter   2:  -155.90393177996862    1.18287e-04   3.17093e-04 ADIIS/DIIS
   @DF-RKS iter   3:  -155.90414259357345   -2.10814e-04   5.13995e-05 DIIS
   @DF-RKS iter   4:  -155.90414753684732   -4.94327e-06   1.07606e-05 DIIS
   @DF-RKS iter   5:  -155.90414779161551   -2.54768e-07   2.30634e-06 DIIS
   @DF-RKS iter   6:  -155.90414780504119   -1.34257e-08   3.31692e-07 DIIS
   @DF-RKS iter   7:  -155.90414780530301   -2.61821e-10   4.37836e-08 DIIS
   @DF-RKS iter   8:  -155.90414780530799   -4.97380e-12   4.74316e-09 DIIS
  Energy and wave function converged.


  ==> Post-Iterations <==

   Electrons on quadrature grid:
      Ntotal   =   29.9999982714 ; deviation = -1.729e-06 

    Orbital Energies [Eh]
    ---------------------

    Doubly Occupied:                                                      

       1A    -10.183526     1B    -10.183120     2B    -10.171089  
       2A    -10.171085     3A     -0.835740     3B     -0.719669  
       4A     -0.626485     4B     -0.536133     5A     -0.506513  
       6A     -0.448896     5B     -0.415478     6B     -0.379287  
       7A     -0.354239     7B     -0.309299     8A     -0.238705  

    Virtual:                                                              

       8B     -0.038395     9A      0.026313    10A      0.032710  
      11A      0.042951     9B      0.042989    10B      0.056905  
      12A      0.081451    11B      0.082320    13A      0.103755  
      12B      0.106571    14A      0.109600    15A      0.124506  
      13B      0.135462    14B      0.144040    16A      0.163166  
      15B      0.168705    17A      0.180811    16B      0.190854  
      18A      0.218907    17B      0.240320    18B      0.246684  
      19A      0.260597    19B      0.272260    20A      0.317870  
      21A      0.334598    20B      0.401382    21B      0.436826  
      22A      0.576946    22B      0.683126    23A      0.696245  
      23B      0.706314    24A      0.716207    25A      0.740485  
      24B      0.745756    26A      0.776356    25B      0.820470  
      27A      0.859736    26B      0.875548    27B      0.926903  
      28A      0.961841    29A      0.983933    28B      0.986204  
      29B      0.996875    30A      1.072615    30B      1.093085  
      31A      1.142833    31B      1.174259    32B      1.220046  
      32A      1.260935    33B      1.480500    33A      1.491716  
      34B      1.585229    34A      1.697280    35B      1.787581  
      35A      1.833933    36A      1.873781    37A      2.035733  
      36B      2.087623    37B      2.154374    38A      2.191182  
      38B      2.232080    39A      2.320796    39B      2.365395  
      40A      2.460134    40B      2.573790    41A      2.619961  
      42A      2.710140    41B      2.865337    42B      3.002763  
      43B      4.213935    43A      4.266402    44A      4.268610  
      44B      4.450351  

    Final Occupation by Irrep:
              A     B 
    DOCC [     8,    7 ]
    NA   [     8,    7 ]
    NB   [     8,    7 ]

  @DF-RKS Final Energy:  -155.90414780530799

   => Energetics <=

    Nuclear Repulsion Energy =            109.1253877685143436
    One-Electron Energy =                -424.1018453949959053
    Two-Electron Energy =                 178.3461251080359204
    DFT Exchange-Correlation Energy =     -19.2738152868623658
    Empirical Dispersion Energy =           0.0000000000000000
    VV10 Nonlocal Energy =                  0.0000000000000000
    Total Energy =                       -155.9041478053079857

Computation Completed


Properties will be evaluated at   0.000000,   0.000000,   0.000000 [a0]

Properties computed using the SCF density matrix


 Multipole Moments:

 ------------------------------------------------------------------------------------
     Multipole            Electronic (a.u.)      Nuclear  (a.u.)        Total (a.u.)
 ------------------------------------------------------------------------------------

 L = 1.  Multiply by 2.5417464519 to convert [e a0] to [Debye]
 Dipole X            :          0.0000000           -0.0000000           -0.0000000
 Dipole Y            :          0.0000000            0.0000000            0.0000000
 Dipole Z            :          1.2549494           -1.2266140            0.0283354
 Magnitude           :                                                    0.0283354

 ------------------------------------------------------------------------------------

*** tstop() called on Barrys-MacBook-Pro.local at Wed May 22 18:25:59 2024
Module time:
	user time   =       9.56 seconds =       0.16 minutes
	system time =       0.53 seconds =       0.01 minutes
	total time  =          3 seconds =       0.05 minutes
Total time:
	user time   =    1225.43 seconds =      20.42 minutes
	system time =      49.18 seconds =       0.82 minutes
	total time  =       6828 seconds =     113.80 minutes

*** tstart() called on Barrys-MacBook-Pro.local
*** at Wed May 22 18:25:59 2024


         ------------------------------------------------------------
                                   SCF GRAD                          
                          Rob Parrish, Justin Turney,                
                       Andy Simmonett, and Alex Sokolov              
         ------------------------------------------------------------

  ==> Geometry <==

    Molecular point group: c2
    Full point group: C2

    Geometry (in Angstrom), charge = 0, multiplicity = 1:

       Center              X                  Y                   Z               Mass       
    ------------   -----------------  -----------------  -----------------  -----------------
         C            1.214422538472     0.316614729991    -0.570201117329    12.000000000000
         C            0.719057612547     0.000000000000     0.625145675134    12.000000000000
         C           -0.719057612547     0.000000000000     0.625145675134    12.000000000000
         C           -1.214422538472    -0.316614729991    -0.570201117329    12.000000000000
         H            2.290022685125     0.271988889029    -0.757264811189     1.007825032230
         H            0.625537085404     0.722411413703    -1.380157726715     1.007825032230
         H            1.328021196970    -0.282141063931     1.483207101123     1.007825032230
         H           -1.328021196970     0.282141063931     1.483207101123     1.007825032230
         H           -2.290022685125    -0.271988889029    -0.757264811189     1.007825032230
         H           -0.625537085404    -0.722411413703    -1.380157726715     1.007825032230

  Nuclear repulsion =  109.125387768514329

  ==> Basis Set <==

  Basis Set: 6-31+G(D)
    Blend: 6-31+G(D)
    Number of shells: 44
    Number of basis functions: 88
    Number of Cartesian functions: 88
    Spherical Harmonics?: false
    Max angular momentum: 2

  ==> DFJKGrad: Density-Fitted SCF Gradients <==

    Gradient:                    1
    J tasked:                  Yes
    K tasked:                  Yes
    wK tasked:                  No
    OpenMP threads:              4
    Integrals threads:           4
    Memory [MiB]:             1430
    Schwarz Cutoff:          1E-12
    Fitting Condition:       1E-10

   => Auxiliary Basis Set <=

  Basis Set: (6-31+G(D) AUX)
    Blend: HEAVY-AUG-CC-PVDZ-JKFIT
    Number of shells: 166
    Number of basis functions: 554
    Number of Cartesian functions: 554
    Spherical Harmonics?: false
    Max angular momentum: 3

  ==> DFT Potential <==

   => LibXC <=

    Version 6.2.2
    S. Lehtola, C. Steigemann, M. J.T. Oliveira, and M. A.L. Marques.,  SoftwareX 7, 1–5 (2018) (10.1016/j.softx.2017.11.002)

   => Composite Functional: B3PW91 <= 

    B3PW91 Hyb-GGA Exchange-Correlation Functional

    A. D. Becke.,  J. Chem. Phys. 98, 5648 (1993) (10.1063/1.464913)

    Deriv               =              1
    GGA                 =           TRUE
    Meta                =          FALSE

    Exchange Hybrid     =           TRUE
    MP2 Hybrid          =          FALSE

   => Exchange Functionals <=

    0.0800   Slater exchange
    0.7200         Becke 88

   => Exact (HF) Exchange <=

    0.2000               HF 

   => Correlation Functionals <=

    0.1900    Perdew & Wang
    0.8100   Perdew & Wang 91

   => LibXC Density Thresholds  <==

    XC_HYB_GGA_XC_B3PW91:  1.00E-15 

   => Molecular Quadrature <=

    Radial Scheme          =       TREUTLER
    Pruning Scheme         =           NONE
    Nuclear Scheme         =       TREUTLER

    Blocking Scheme        =         OCTREE
    BS radius alpha        =              1
    Pruning alpha          =              1
    Radial Points          =             75
    Spherical Points       =            302
    Total Points           =         216106
    Total Blocks           =           1644
    Max Points             =            256
    Max Functions          =             88
    Weights Tolerance      =       1.00E-15


  -Total Gradient:
     Atom            X                  Y                   Z
    ------   -----------------  -----------------  -----------------
       1       -0.054885880521    -0.013072610879     0.002155281129
       2       -0.003420260871    -0.003095199508    -0.002524211135
       3        0.003420260871     0.003095199508    -0.002524211135
       4        0.054885880521     0.013072610879     0.002155281129
       5        0.000419878132     0.000918604153     0.000276834465
       6       -0.001896574593    -0.002706447953    -0.001878364805
       7       -0.000227549161    -0.000658804135     0.001967167538
       8        0.000227549161     0.000658804135     0.001967167538
       9       -0.000419878132    -0.000918604153     0.000276834465
      10        0.001896574593     0.002706447953    -0.001878364805


*** tstop() called on Barrys-MacBook-Pro.local at Wed May 22 18:26:00 2024
Module time:
	user time   =       3.05 seconds =       0.05 minutes
	system time =       0.09 seconds =       0.00 minutes
	total time  =          1 seconds =       0.02 minutes
Total time:
	user time   =    1228.49 seconds =      20.47 minutes
	system time =      49.27 seconds =       0.82 minutes
	total time  =       6829 seconds =     113.82 minutes

    			-----------------------------------------

    			 OPTKING 3.0: for geometry optimizations 

    			     By R.A. King, Bethel University     

    			        with contributions from          

    			    A.V. Copan, J. Cayton, A. Heide      

    			-----------------------------------------

    
	                            ===> Fragment 1 <== 

	 Z (Atomic Numbers)          Masses                          Geom                  
	       6.000000            12.000000          2.29492600  0.59831513 -1.07752395   
	       6.000000            12.000000          1.35882196  0.00000000  1.18135411   
	       6.000000            12.000000         -1.35882196  0.00000000  1.18135411   
	       6.000000            12.000000         -2.29492600 -0.59831513 -1.07752395   
	       1.000000             1.007825          4.32751570  0.51398451 -1.43102310   
	       1.000000             1.007825          1.18209377  1.36515972 -2.60812011   
	       1.000000             1.007825          2.50959635 -0.53316934  2.80285521   
	       1.000000             1.007825         -2.50959635  0.53316934  2.80285521   
	       1.000000             1.007825         -4.32751570 -0.51398451 -1.43102310   
	       1.000000             1.007825         -1.18209377 -1.36515972 -2.60812011   

	 - Coordinate -           - BOHR/RAD -       - ANG/DEG -
	 R(1,2)           =         2.517301           1.332098
	 R(1,5)           =         2.064823           1.092657
	 R(1,6)           =         2.041855           1.080503
	 R(2,3)           =         2.717644           1.438115
	 R(2,7)           =         2.058596           1.089362
	 R(3,4)           =         2.517301           1.332098
	 R(3,8)           =         2.058596           1.089362
	 R(4,9)           =         2.064823           1.092657
	 R(4,10)          =         2.041855           1.080503
	 B(1,2,3)         =         1.951817         111.830881
	 B(1,2,7)         =         2.165777         124.089881
	 B(2,1,5)         =         2.105959         120.662584
	 B(2,1,6)         =         2.164276         124.003870
	 B(2,3,4)         =         1.951817         111.830881
	 B(2,3,8)         =         2.163987         123.987317
	 B(3,2,7)         =         2.163987         123.987317
	 B(3,4,9)         =         2.105959         120.662584
	 B(3,4,10)        =         2.164276         124.003870
	 B(4,3,8)         =         2.165777         124.089881
	 B(5,1,6)         =         2.008110         115.056209
	 B(9,4,10)        =         2.008110         115.056209
	 D(1,2,3,4)       =         0.517854          29.670823
	 D(1,2,3,8)       =        -2.564990        -146.963093
	 D(2,3,4,9)       =        -3.044584        -174.441794
	 D(2,3,4,10)      =         0.207901          11.911831
	 D(3,2,1,5)       =        -3.044584        -174.441794
	 D(3,2,1,6)       =         0.207901          11.911831
	 D(4,3,2,7)       =        -2.564990        -146.963093
	 D(5,1,2,7)       =         0.038189           2.188045
	 D(6,1,2,7)       =        -2.992512        -171.458330
	 D(7,2,3,8)       =         0.635352          36.402991
	 D(8,3,4,9)       =         0.038189           2.188045
	 D(8,3,4,10)      =        -2.992512        -171.458330
	[R(1,4)[2.490,2.510]=         4.743276           2.510033


	        --- Internal Coordinate Step in ANG or DEG, aJ/ANG or AJ/DEG ---
	-------------------------------------------------------------------------------
	           Coordinate      Previous         Force          Change          New 
	           ----------      --------        ------          ------        ------
	               R(1,2)       1.33210        0.00280        0.02466       1.35676
	               R(1,5)       1.09266       -0.00271        0.01113       1.10379
	               R(1,6)       1.08050       -0.01174        0.00037       1.08087
	               R(2,3)       1.43812        0.02628        0.01777       1.45588
	               R(2,7)       1.08936       -0.01313        0.00554       1.09490
	               R(3,4)       1.33210        0.00280        0.02466       1.35676
	               R(3,8)       1.08936       -0.01313        0.00554       1.09490
	               R(4,9)       1.09266       -0.00271        0.01113       1.10379
	              R(4,10)       1.08050       -0.01174        0.00037       1.08087
	             B(1,2,3)     111.83088       -0.00006       -1.19632     110.63456
	             B(1,2,7)     124.08988       -0.00007       -0.55947     123.53041
	             B(2,1,5)     120.66258       -0.00003       -1.00033     119.66225
	             B(2,1,6)     124.00387        0.00005        1.61974     125.62361
	             B(2,3,4)     111.83088       -0.00006       -1.19632     110.63456
	             B(2,3,8)     123.98732        0.00013        1.58003     125.56735
	             B(3,2,7)     123.98732        0.00013        1.58003     125.56735
	             B(3,4,9)     120.66258       -0.00003       -1.00033     119.66225
	            B(3,4,10)     124.00387        0.00005        1.61974     125.62361
	             B(4,3,8)     124.08988       -0.00007       -0.55947     123.53041
	             B(5,1,6)     115.05621       -0.00004       -1.32621     113.73000
	            B(9,4,10)     115.05621       -0.00004       -1.32621     113.73000
	           D(1,2,3,4)      29.67082        0.00004        2.03495      31.70577
	           D(1,2,3,8)    -146.96309        0.00010        4.46240    -142.50069
	           D(2,3,4,9)    -174.44179        0.00009        3.84482    -170.59698
	          D(2,3,4,10)      11.91183        0.00024        9.58011      21.49194
	           D(3,2,1,5)    -174.44179        0.00009        3.84482    -170.59698
	           D(3,2,1,6)      11.91183        0.00024        9.58011      21.49194
	           D(4,3,2,7)    -146.96309        0.00010        4.46240    -142.50069
	           D(5,1,2,7)       2.18804        0.00005        1.56202       3.75006
	           D(6,1,2,7)    -171.45833        0.00020        7.29731    -164.16102
	           D(7,2,3,8)      36.40299        0.00015        6.88986      43.29285
	           D(8,3,4,9)       2.18804        0.00005        1.56202       3.75006
	          D(8,3,4,10)    -171.45833        0.00020        7.29731    -164.16102
	 [R(1,4)[2.490,2.510]       2.51003       -0.00000       -0.00013       2.50991
	-------------------------------------------------------------------------------

	                                 ==> Convergence Check <==                                  
    
	Measures of convergence in internal coordinates in au.
    
	Criteria marked as inactive (o), active & met (*), and active & unmet ( ).

	----------------------------------------------------------------------------------------------
	   Step    Total Energy     Delta E     Max Force     RMS Force      Max Disp      RMS Disp   
	----------------------------------------------------------------------------------------------
	  Convergence Criteria     1.00e-06 *    3.00e-04 *             o    1.20e-03 *             o
	----------------------------------------------------------------------------------------------
	     3    -155.90414781   -1.33e-03      3.21e-03      1.49e-03 o    1.67e-01      6.40e-02 o  ~
	----------------------------------------------------------------------------------------------

Next Geometry in Ang 
	Fragment 1 (Ang)

	    C   1.2063082794   0.3460167691  -0.5800354468
	    C   0.7279407991  -0.0005004637   0.6413881630
	    C  -0.7279407991   0.0005004637   0.6413881630
	    C  -1.2063082794  -0.3460167691  -0.5800354468
	    H   2.2842905989   0.2430851571  -0.7938204028
	    H   0.6634836449   0.8956830140  -1.3360096791
	    H   1.3645737984  -0.3294708288   1.4692064868
	    H  -1.3645737984   0.3294708288   1.4692064868
	    H  -2.2842905989  -0.2430851571  -0.7938204028
	    H  -0.6634836449  -0.8956830140  -1.3360096791


    Structure for next step:
    Molecular point group: c2
    Full point group: C2

    Geometry (in Angstrom), charge = 0, multiplicity = 1:

    C       
    C             1         CC1
    C             2         CC2      1       A_321
    C             3         CC1      2       A_321      1    dihedral
    H             1      CH_5_9      2      CH_512      3          D3
    H             1     CH_6_10      5      CH_615      2          D2
    H             2      CH_7_8      1      CH_721      3          D1
    H             3      CH_7_8      4      CH_721      2          D1
[...]

  ==> Primary Basis <==

  Basis Set: 6-31+G(D)
    Blend: 6-31+G(D)
    Number of shells: 44
    Number of basis functions: 88
    Number of Cartesian functions: 88
    Spherical Harmonics?: false
    Max angular momentum: 2

   => Loading Basis Set <=

    Name: (6-31+G(D) AUX)
    Role: JKFIT
    Keyword: DF_BASIS_SCF
    atoms 1-4  entry C          line   194 file /Users/blink/psi4conda/share/psi4/basis/heavy-aug-cc-pvdz-jkfit.gbs 
    atoms 5-10 entry H          line   116 file /Users/blink/psi4conda/share/psi4/basis/heavy-aug-cc-pvdz-jkfit.gbs 

   => Loading Basis Set <=

    Name: 6-31+G(D)
    Role: ORBITAL
    Keyword: BASIS
    atoms 1-4  entry C          line   119 file /Users/blink/psi4conda/share/psi4/basis/6-31pg_d_.gbs 
    atoms 5-10 entry H          line    46 file /Users/blink/psi4conda/share/psi4/basis/6-31pg_d_.gbs 

  Reading orbitals from file /tmp/cyclobutene1.default.16013.180.npy, no projection.

  ==> Integral Setup <==

  DFHelper Memory: AOs need 0.036 GiB; user supplied 1.397 GiB. 
  Using in-core AOs.

  ==> MemDFJK: Density-Fitted J/K Matrices <==

    J tasked:                   Yes
    K tasked:                   Yes
    wK tasked:                   No
    OpenMP threads:               4
    Memory [MiB]:              1430
    Algorithm:                 Core
    Schwarz Cutoff:           1E-12
    Mask sparsity (%):       0.1550
    Fitting Condition:        1E-10

   => Auxiliary Basis Set <=

  Basis Set: (6-31+G(D) AUX)
    Blend: HEAVY-AUG-CC-PVDZ-JKFIT
    Number of shells: 166
    Number of basis functions: 554
    Number of Cartesian functions: 554
    Spherical Harmonics?: false
    Max angular momentum: 3

  Minimum eigenvalue in the overlap matrix is 8.0836697088E-05.
  Reciprocal condition number of the overlap matrix is 1.0263038871E-05.
    Using symmetric orthogonalization.

  ==> Pre-Iterations <==

  SCF Guess: Orbitals guess was supplied from a previous computation.

   -------------------------------------------------------
    Irrep   Nso     Nmo     Nalpha   Nbeta   Ndocc  Nsocc
   -------------------------------------------------------
     A         44      44       8       8       8       0
     B         44      44       7       7       7       0
   -------------------------------------------------------
    Total      88      88      15      15      15       0
   -------------------------------------------------------

  ==> Iterations <==

                           Total Energy        Delta E     RMS |[F,P]|

   @DF-RHF iter   0:  -154.92111554246958   -1.54921e+02   5.55461e-05 
   @DF-RHF iter   1:  -154.92113050941666   -1.49669e-05   8.78310e-06 DIIS
   @DF-RHF iter   2:  -154.92113090205893   -3.92642e-07   3.59693e-06 DIIS
   @DF-RHF iter   3:  -154.92113100092519   -9.88663e-08   8.82517e-07 DIIS
   @DF-RHF iter   4:  -154.92113100640370   -5.47851e-09   3.95397e-07 DIIS
   @DF-RHF iter   5:  -154.92113100707121   -6.67512e-10   9.86147e-08 DIIS
   @DF-RHF iter   6:  -154.92113100711583   -4.46221e-11   1.89653e-08 DIIS
   @DF-RHF iter   7:  -154.92113100711825   -2.41585e-12   5.81930e-09 DIIS
  Energy and wave function converged.


  ==> Post-Iterations <==

    Orbital Energies [Eh]
    ---------------------

    Doubly Occupied:                                                      

       1A    -11.242591     1B    -11.241852     2B    -11.230465  
       2A    -11.230461     3A     -1.094169     3B     -1.001560  
       4A     -0.843534     4B     -0.734624     5A     -0.671217  
       6A     -0.611093     5B     -0.599625     6B     -0.532361  
       7A     -0.495838     7B     -0.421850     8A     -0.335764  

    Virtual:                                                              

       9A      0.083921     8B      0.088081    10A      0.089893  
       9B      0.093012    10B      0.109294    11A      0.127191  
      12A      0.140252    11B      0.143935    12B      0.155041  
      13A      0.161086    14A      0.183378    15A      0.197398  
      13B      0.205390    14B      0.213494    15B      0.235835  
      16B      0.245147    16A      0.259193    17A      0.279070  
      18A      0.343170    17B      0.379150    19A      0.388254  
      18B      0.392485    19B      0.428649    20A      0.472820  
      21A      0.524642    20B      0.581489    21B      0.605269  
      22A      0.759505    23A      0.830817    22B      0.883406  
      23B      0.905786    24A      0.936627    25A      0.989016  
      24B      0.991411    26A      1.016591    27A      1.073592  
      25B      1.081708    26B      1.142792    27B      1.184796  
      28A      1.191695    28B      1.236701    29A      1.260200  
      29B      1.286067    30A      1.294002    30B      1.317785  
      31A      1.400690    31B      1.434577    32B      1.478242  
      32A      1.547983    33A      1.778051    33B      1.784806  
      34B      1.817964    34A      1.932674    35B      2.063121  
      35A      2.095400    36A      2.262989    37A      2.305864  
      36B      2.352363    38A      2.452921    37B      2.479350  
      38B      2.562140    39A      2.633569    39B      2.706863  
      40A      2.811707    40B      2.866087    41A      2.984300  
      42A      3.075959    41B      3.216866    42B      3.422099  
      43A      4.622840    43B      4.666692    44A      4.683027  
      44B      4.896425  

    Final Occupation by Irrep:
              A     B 
    DOCC [     8,    7 ]
    NA   [     8,    7 ]
    NB   [     8,    7 ]

  @DF-RHF Final Energy:  -154.92113100711825

   => Energetics <=

    Nuclear Repulsion Energy =            105.1982859598155358
    One-Electron Energy =                -415.6648298455260147
    Two-Electron Energy =                 155.5454128785922592
    Total Energy =                       -154.9211310071182481

Computation Completed


Properties will be evaluated at   0.000000,   0.000000,   0.000000 [a0]

Properties computed using the SCF density matrix


 Multipole Moments:

 ------------------------------------------------------------------------------------
     Multipole            Electronic (a.u.)      Nuclear  (a.u.)        Total (a.u.)
 ------------------------------------------------------------------------------------

 L = 1.  Multiply by 2.5417464519 to convert [e a0] to [Debye]
 Dipole X            :          0.0000000            0.0000000            0.0000000
 Dipole Y            :          0.0000000            0.0000000            0.0000000
 Dipole Z            :          0.7628109           -0.7341488            0.0286621
 Magnitude           :                                                    0.0286621

 ------------------------------------------------------------------------------------

*** tstop() called on Barrys-MacBook-Pro.local at Wed May 22 18:28:26 2024
Module time:
	user time   =       1.80 seconds =       0.03 minutes
	system time =       0.08 seconds =       0.00 minutes
	total time  =          0 seconds =       0.00 minutes
Total time:
	user time   =    1608.25 seconds =      26.80 minutes
	system time =      66.84 seconds =       1.11 minutes
	total time  =       6975 seconds =     116.25 minutes

*** tstart() called on Barrys-MacBook-Pro.local
*** at Wed May 22 18:28:26 2024


         ------------------------------------------------------------
                                   SCF GRAD                          
                          Rob Parrish, Justin Turney,                
                       Andy Simmonett, and Alex Sokolov              
         ------------------------------------------------------------

  ==> Geometry <==

    Molecular point group: c2
    Full point group: C2

    Geometry (in Angstrom), charge = 0, multiplicity = 1:

       Center              X                  Y                   Z               Mass       
    ------------   -----------------  -----------------  -----------------  -----------------
         C            1.506469160080     0.368959427260    -0.491060699283    12.000000000000
         C            0.739011949319     0.000000000000     0.523945929278    12.000000000000
         C           -0.739011949319     0.000000000000     0.523945929278    12.000000000000
         C           -1.506469160080    -0.368959427260    -0.491060699283    12.000000000000
         H            2.578798942895     0.330786168863    -0.421349100661     1.007825032230
         H            1.091644794105     0.731909833324    -1.415032152705     1.007825032230
         H            1.206753282636    -0.310855181067     1.444822453656     1.007825032230
         H           -1.206753282636     0.310855181067     1.444822453656     1.007825032230
         H           -2.578798942895    -0.330786168863    -0.421349100661     1.007825032230
         H           -1.091644794105    -0.731909833324    -1.415032152705     1.007825032230

  Nuclear repulsion =  105.198285959815522

  ==> Basis Set <==

  Basis Set: 6-31+G(D)
    Blend: 6-31+G(D)
    Number of shells: 44
    Number of basis functions: 88
    Number of Cartesian functions: 88
    Spherical Harmonics?: false
    Max angular momentum: 2

  ==> DFJKGrad: Density-Fitted SCF Gradients <==

    Gradient:                    1
    J tasked:                  Yes
    K tasked:                  Yes
    wK tasked:                  No
    OpenMP threads:              4
    Integrals threads:           4
    Memory [MiB]:             1430
    Schwarz Cutoff:          1E-12
    Fitting Condition:       1E-10

   => Auxiliary Basis Set <=

  Basis Set: (6-31+G(D) AUX)
    Blend: HEAVY-AUG-CC-PVDZ-JKFIT
    Number of shells: 166
    Number of basis functions: 554
    Number of Cartesian functions: 554
    Spherical Harmonics?: false
    Max angular momentum: 3


  -Total Gradient:
     Atom            X                  Y                   Z
    ------   -----------------  -----------------  -----------------
       1       -0.000003362991     0.000015153567    -0.000004443941
       2        0.000043220654    -0.000005636748     0.000011924881
       3       -0.000043220654     0.000005636748     0.000011924881
       4        0.000003362991    -0.000015153567    -0.000004443941
       5        0.000003076160    -0.000000210866     0.000002573285
       6       -0.000003085876    -0.000002874011     0.000000145322
       7        0.000000452297    -0.000014615669    -0.000010199546
       8       -0.000000452297     0.000014615669    -0.000010199546
       9       -0.000003076160     0.000000210866     0.000002573285
      10        0.000003085876     0.000002874011     0.000000145322


*** tstop() called on Barrys-MacBook-Pro.local at Wed May 22 18:28:27 2024
Module time:
	user time   =       1.05 seconds =       0.02 minutes
	system time =       0.06 seconds =       0.00 minutes
	total time  =          1 seconds =       0.02 minutes
Total time:
	user time   =    1609.31 seconds =      26.82 minutes
	system time =      66.90 seconds =       1.11 minutes
	total time  =       6976 seconds =     116.27 minutes

    			-----------------------------------------

    			 OPTKING 3.0: for geometry optimizations 

    			     By R.A. King, Bethel University     

    			        with contributions from          

    			    A.V. Copan, J. Cayton, A. Heide      

    			-----------------------------------------

    
	                            ===> Fragment 1 <== 

	 Z (Atomic Numbers)          Masses                          Geom                  
	       6.000000            12.000000          2.84681413  0.69723227 -0.92797023   
	       6.000000            12.000000          1.39653019  0.00000000  0.99011431   
	       6.000000            12.000000         -1.39653019  0.00000000  0.99011431   
	       6.000000            12.000000         -2.84681413 -0.69723227 -0.92797023   
	       1.000000             1.007825          4.87322373  0.62509527 -0.79623440   
	       1.000000             1.007825          2.06290969  1.38310913 -2.67402323   
	       1.000000             1.007825          2.28043321 -0.58743116  2.73031874   
	       1.000000             1.007825         -2.28043321  0.58743116  2.73031874   
	       1.000000             1.007825         -4.87322373 -0.62509527 -0.79623440   
	       1.000000             1.007825         -2.06290969 -1.38310913 -2.67402323   

	 - Coordinate -           - BOHR/RAD -       - ANG/DEG -
	 R(1,2)           =         2.503698           1.324900
	 R(1,5)           =         2.031968           1.075271
	 R(1,6)           =         2.033134           1.075888
	 R(2,3)           =         2.793060           1.478024
	 R(2,7)           =         2.038301           1.078622
	 R(3,4)           =         2.503698           1.324900
	 R(3,8)           =         2.038301           1.078622
	 R(4,9)           =         2.031968           1.075271
	 R(4,10)          =         2.033134           1.075888
	 B(1,2,3)         =         2.188613         125.398279
	 B(1,2,7)         =         2.075016         118.889668
	 B(2,1,5)         =         2.115446         121.206110
	 B(2,1,6)         =         2.127665         121.906237
	 B(2,3,4)         =         2.188613         125.398279
	 B(2,3,8)         =         2.019332         115.699227
	 B(3,2,7)         =         2.019332         115.699227
	 B(3,4,9)         =         2.115446         121.206110
	 B(3,4,10)        =         2.127665         121.906237
	 B(4,3,8)         =         2.075016         118.889668
	 B(5,1,6)         =         2.039986         116.882574
	 B(9,4,10)        =         2.039986         116.882574
	 D(1,2,3,4)       =         0.697309          39.952862
	 D(1,2,3,8)       =        -2.467384        -141.370715
	 D(2,3,4,9)       =        -3.128478        -179.248610
	 D(2,3,4,10)      =         0.027872           1.596946
	 D(3,2,1,5)       =        -3.128478        -179.248610
	 D(3,2,1,6)       =         0.027872           1.596946
	 D(4,3,2,7)       =        -2.467384        -141.370715
	 D(5,1,2,7)       =         0.036889           2.113570
	 D(6,1,2,7)       =        -3.089946        -177.040874
	 D(7,2,3,8)       =         0.651107          37.305708
	 D(8,3,4,9)       =         0.036889           2.113570
	 D(8,3,4,10)      =        -3.089946        -177.040874


	        --- Internal Coordinate Step in ANG or DEG, aJ/ANG or AJ/DEG ---
	-------------------------------------------------------------------------------
	           Coordinate      Previous         Force          Change          New 
	           ----------      --------        ------          ------        ------
	               R(1,2)       1.32490       -0.00002        0.00001       1.32491
	               R(1,5)       1.07527       -0.00003       -0.00001       1.07526
	               R(1,6)       1.07589       -0.00000        0.00000       1.07589
	               R(2,3)       1.47802       -0.00033       -0.00007       1.47795
	               R(2,7)       1.07862        0.00004        0.00000       1.07862
	               R(3,4)       1.32490       -0.00002        0.00001       1.32491
	               R(3,8)       1.07862        0.00004        0.00000       1.07862
	               R(4,9)       1.07527       -0.00003       -0.00001       1.07526
	              R(4,10)       1.07589       -0.00000        0.00000       1.07589
	             B(1,2,3)     125.39828        0.00000        0.01270     125.41098
	             B(1,2,7)     118.88967       -0.00000       -0.00558     118.88408
	             B(2,1,5)     121.20611        0.00000       -0.00146     121.20465
	             B(2,1,6)     121.90624        0.00000        0.00532     121.91156
	             B(2,3,4)     125.39828        0.00000        0.01270     125.41098
	             B(2,3,8)     115.69923       -0.00000       -0.00721     115.69201
	             B(3,2,7)     115.69923       -0.00000       -0.00721     115.69201
	             B(3,4,9)     121.20611        0.00000       -0.00146     121.20465
	            B(3,4,10)     121.90624        0.00000        0.00532     121.91156
	             B(4,3,8)     118.88967       -0.00000       -0.00558     118.88408
	             B(5,1,6)     116.88257       -0.00000       -0.00390     116.87867
	            B(9,4,10)     116.88257       -0.00000       -0.00390     116.87867
	           D(1,2,3,4)      39.95286       -0.00000       -0.17117      39.78170
	           D(1,2,3,8)    -141.37072       -0.00000       -0.17634    -141.54705
	           D(2,3,4,9)    -179.24861       -0.00000        0.00210    -179.24651
	          D(2,3,4,10)       1.59695        0.00000        0.00576       1.60270
	           D(3,2,1,5)    -179.24861       -0.00000        0.00210    -179.24651
	           D(3,2,1,6)       1.59695        0.00000        0.00576       1.60270
	           D(4,3,2,7)    -141.37072       -0.00000       -0.17634    -141.54705
	           D(5,1,2,7)       2.11357        0.00000        0.00743       2.12100
	           D(6,1,2,7)    -177.04087        0.00000        0.01109    -177.02979
	           D(7,2,3,8)      37.30571       -0.00000       -0.18151      37.12420
	           D(8,3,4,9)       2.11357        0.00000        0.00743       2.12100
	          D(8,3,4,10)    -177.04087        0.00000        0.01109    -177.02979
	-------------------------------------------------------------------------------

	                                 ==> Convergence Check <==                                  
    
	Measures of convergence in internal coordinates in au.
    
	Criteria marked as inactive (o), active & met (*), and active & unmet ( ).

	----------------------------------------------------------------------------------------------
	   Step    Total Energy     Delta E     Max Force     RMS Force      Max Disp      RMS Disp   
	----------------------------------------------------------------------------------------------
	  Convergence Criteria     1.00e-06 *    3.00e-04 *             o    1.20e-03 *             o
	----------------------------------------------------------------------------------------------
	     8    -154.92113101   -3.03e-07 *    4.03e-05 *    9.41e-06 o    3.17e-03      1.08e-03 o  ~
	----------------------------------------------------------------------------------------------

Next Geometry in Ang 
	Fragment 1 (Ang)

	    C   1.5064379224   0.3683588549  -0.4912607486
	    C   0.7389745656   0.0004767445   0.5241411398
	    C  -0.7389745656  -0.0004767445   0.5241411398
	    C  -1.5064379224  -0.3683588549  -0.4912607486
	    H   2.5787647008   0.3308598620  -0.4212552551
	    H   1.0916942243   0.7297902097  -1.4158644693
	    H   1.2067935678  -0.3086367845   1.4455657635
	    H  -1.2067935678   0.3086367845   1.4455657635
	    H  -2.5787647008  -0.3308598620  -0.4212552551
	    H  -1.0916942243  -0.7297902097  -1.4158644693


    Final optimized geometry and variables:
    Molecular point group: c2
    Full point group: C2

    Geometry (in Angstrom), charge = 0, multiplicity = 1:

    C       
    C             1         CC1
    C             2         CC2      1       A_321
    C             3         CC1      2       A_321      1    dihedral
    H             1      CH_5_9      2      CH_512      3          D3
    H             1     CH_6_10      5      CH_615      2          D2
    H             2      CH_7_8      1      CH_721      3          D1
    H             3      CH_7_8      4      CH_721      2          D1
    H             4      CH_5_9      3      CH_512      2          D3
    H             4     CH_6_10      9      CH_615      3          D2

    A_321     =  125.3982794441
    CC1       =    1.3249000284
    CC2       =    1.4780238986
    CH_512    =  121.2061102788
    CH_5_9    =    1.0752711601
    CH_615    =  116.8825735177
    CH_6_10   =    1.0758882370
    CH_721    =  118.8896678434
    CH_7_8    =    1.0786224880
    D1        = -178.6378202470
    D2        =  179.1952311537
    D3        = -179.2486095838
    dihedral  =   39.9528617828

