Generated by Psi4
     FORCE                           RHF                       CC-PVDZ
Number of atoms                            I                3
Charge                                     I                0
Multiplicity                               I                1
Number of electrons                        I               10
Number of alpha electrons                  I                5
Number of beta electrons                   I                5
Number of basis functions                  I               24
Number of independent functions            I               24
Atomic numbers                             I   N=           3
           8           1           1
Nuclear charges                            R   N=           3
  8.00000000e+00  1.00000000e+00  1.00000000e+00
Current cartesian coordinates              R   N=           9
  0.00000000e+00  0.00000000e+00 -1.22370648e-01  0.00000000e+00 -1.41515510e+00
  9.71055493e-01  0.00000000e+00  1.41515510e+00  9.71055493e-01
Integer atomic weights                     I   N=           3
          16           1           1
Real atomic weights                        R   N=           3
  1.59949146e+01  1.00782503e+00  1.00782503e+00
Number of primitive shells                 I               32
Number of contracted shells                I               12
Pure/Cartesian d shells                    I                0
Pure/Cartesian f shells                    I                0
Highest angular momentum                   I                2
Largest degree of contraction              I                8
Shell types                                I   N=          12
           0           0           0           1           1          -2
           0           0           1           0           0           1
Number of primitives per shell             I   N=          12
           8           8           1           3           1           1
           3           1           1           3           1           1
Shell to atom map                          I   N=          12
           1           1           1           1           1           1
           2           2           2           3           3           3
Primitive exponents                        R   N=          32
  1.17200000e+04  1.75900000e+03  4.00800000e+02  1.13700000e+02  3.70300000e+01
  1.32700000e+01  5.02500000e+00  1.01300000e+00  1.17200000e+04  1.75900000e+03
  4.00800000e+02  1.13700000e+02  3.70300000e+01  1.32700000e+01  5.02500000e+00
  1.01300000e+00  3.02300000e-01  1.77000000e+01  3.85400000e+00  1.04600000e+00
  2.75300000e-01  1.18500000e+00  1.30100000e+01  1.96200000e+00  4.44600000e-01
  1.22000000e-01  7.27000000e-01  1.30100000e+01  1.96200000e+00  4.44600000e-01
  1.22000000e-01  7.27000000e-01
Contraction coefficients                   R   N=          32
  7.09645947e-04  5.46727229e-03  2.78231186e-02  1.04747740e-01  2.82920846e-01
  4.48495239e-01  2.70816885e-01  1.54502916e-02 -3.14443412e-04 -2.48213768e-03
 -1.23163554e-02 -5.05389173e-02 -1.39384903e-01 -3.25077495e-01 -2.29848308e-01
  1.09537935e+00  1.00000000e+00  6.26791663e-02  3.33536566e-01  7.41239642e-01
  1.00000000e+00  1.00000000e+00  3.34987264e-02  2.34800801e-01  8.13682958e-01
  1.00000000e+00  1.00000000e+00  3.34987264e-02  2.34800801e-01  8.13682958e-01
  1.00000000e+00  1.00000000e+00
Coordinates of each shell                  R   N=          36
  0.00000000e+00  0.00000000e+00 -1.22370648e-01  0.00000000e+00  0.00000000e+00
 -1.22370648e-01  0.00000000e+00  0.00000000e+00 -1.22370648e-01  0.00000000e+00
  0.00000000e+00 -1.22370648e-01  0.00000000e+00  0.00000000e+00 -1.22370648e-01
  0.00000000e+00  0.00000000e+00 -1.22370648e-01  0.00000000e+00 -1.41515510e+00
  9.71055493e-01  0.00000000e+00 -1.41515510e+00  9.71055493e-01  0.00000000e+00
 -1.41515510e+00  9.71055493e-01  0.00000000e+00  1.41515510e+00  9.71055493e-01
  0.00000000e+00  1.41515510e+00  9.71055493e-01  0.00000000e+00  1.41515510e+00
  9.71055493e-01
Total Energy                               R     -7.602705349931868e+01
Alpha Orbital Energies                     R   N=          24
 -2.05484411e+01 -1.34222743e+00 -7.05389511e-01 -5.68380660e-01 -4.93917163e-01
  1.87400881e-01  2.57799420e-01  7.97624452e-01  8.64293642e-01  1.16263925e+00
  1.20040144e+00  1.25260573e+00  1.44391513e+00  1.47882711e+00  1.67750149e+00
  1.86530007e+00  1.94648380e+00  2.47922013e+00  2.51798386e+00  3.29481214e+00
  3.35014549e+00  3.52452902e+00  3.87884652e+00  4.15935711e+00
Alpha MO coefficients                      R   N=         576
  1.00092527e+00  1.24641470e-03 -2.59604409e-03  0.00000000e+00  0.00000000e+00
  1.79733195e-03  0.00000000e+00  0.00000000e+00 -4.48151471e-04  1.54854304e-05
  0.00000000e+00  0.00000000e+00 -1.63662011e-04  0.00000000e+00 -3.05646549e-04
  4.18995884e-04  0.00000000e+00 -6.07276093e-04  5.05523428e-04 -3.05646549e-04
  4.18995884e-04  0.00000000e+00  6.07276093e-04  5.05523428e-04  8.69079661e-03
 -4.41582216e-01 -3.67962571e-01  0.00000000e+00  0.00000000e+00 -8.08478573e-02
  0.00000000e+00  0.00000000e+00  1.47747480e-02 -1.24517829e-03  0.00000000e+00
  0.00000000e+00  3.14160264e-03  0.00000000e+00 -1.98142680e-01 -9.77686649e-03
  0.00000000e+00 -3.80513490e-02  2.07144411e-02 -1.98142680e-01 -9.77686649e-03
  0.00000000e+00  3.80513490e-02  2.07144411e-02  0.00000000e+00  0.00000000e+00
  0.00000000e+00  0.00000000e+00  4.91429689e-01  0.00000000e+00  0.00000000e+00
  2.18379970e-01  0.00000000e+00  0.00000000e+00  0.00000000e+00  2.72606721e-02
  0.00000000e+00  0.00000000e+00 -3.30311527e-01 -8.75694270e-02  0.00000000e+00
 -2.32703393e-02  3.27976628e-02  3.30311527e-01  8.75694270e-02  0.00000000e+00
 -2.32703393e-02 -3.27976628e-02  2.13014264e-03 -1.51172770e-01 -3.53224695e-01
  0.00000000e+00  0.00000000e+00  5.46694102e-01  0.00000000e+00  0.00000000e+00
  3.64452709e-01  1.80053828e-02  0.00000000e+00  0.00000000e+00 -4.61619589e-03
  0.00000000e+00  2.06024623e-01  3.79635411e-02  0.00000000e+00  3.17738309e-02
  7.97033684e-03  2.06024623e-01  3.79635411e-02  0.00000000e+00 -3.17738309e-02
  7.97033684e-03  0.00000000e+00  0.00000000e+00  0.00000000e+00  6.30780922e-01
  0.00000000e+00  0.00000000e+00  4.95148231e-01  0.00000000e+00  0.00000000e+00
  0.00000000e+00  1.83506338e-02  0.00000000e+00  0.00000000e+00  0.00000000e+00
  0.00000000e+00  0.00000000e+00  3.15160907e-02  0.00000000e+00  0.00000000e+00
  0.00000000e+00  0.00000000e+00  3.15160907e-02  0.00000000e+00  0.00000000e+00
  5.20862827e-02 -7.25107428e-02 -1.01356927e+00  0.00000000e+00  0.00000000e+00
 -1.86389290e-01  0.00000000e+00  0.00000000e+00 -3.31909233e-01 -7.48285122e-03
  0.00000000e+00  0.00000000e+00  1.05697346e-02  0.00000000e+00  5.67657012e-02
  8.33973356e-01  0.00000000e+00  1.85487252e-02 -1.68280938e-02  5.67657012e-02
  8.33973356e-01  0.00000000e+00 -1.85487252e-02 -1.68280938e-02  0.00000000e+00
  0.00000000e+00  0.00000000e+00  0.00000000e+00  2.79880266e-01  0.00000000e+00
  0.00000000e+00  6.71357089e-01  0.00000000e+00  0.00000000e+00  0.00000000e+00
  2.20941175e-02  0.00000000e+00  0.00000000e+00  2.34498183e-02  1.46499943e+00
  0.00000000e+00  2.16183327e-02 -1.82135851e-02 -2.34498183e-02 -1.46499943e+00
  0.00000000e+00  2.16183327e-02  1.82135851e-02  0.00000000e+00  0.00000000e+00
  0.00000000e+00  0.00000000e+00  2.64590296e-01  0.00000000e+00  0.00000000e+00
  4.82328337e-01  0.00000000e+00  0.00000000e+00  0.00000000e+00 -1.12656549e-01
  0.00000000e+00  0.00000000e+00  9.45965000e-01 -6.68043537e-01  0.00000000e+00
 -7.70355337e-02  1.56455905e-01 -9.45965000e-01  6.68043537e-01  0.00000000e+00
 -7.70355337e-02 -1.56455905e-01  6.21514452e-02  2.52643434e-01 -3.19002606e-01
  0.00000000e+00  0.00000000e+00  3.29694926e-01  0.00000000e+00  0.00000000e+00
 -1.89271506e-02 -1.15805959e-03  0.00000000e+00  0.00000000e+00  1.08646172e-01
  0.00000000e+00 -7.77106270e-01  5.40185963e-01  0.00000000e+00  3.05293564e-01
 -6.02086144e-02 -7.77106270e-01  5.40185963e-01  0.00000000e+00 -3.05293564e-01
 -6.02086144e-02  3.16391862e-03  1.15326638e-01  7.79158082e-01  0.00000000e+00
  0.00000000e+00 -7.51144785e-01  0.00000000e+00  0.00000000e+00  1.29644722e+00
  1.14141277e-02  0.00000000e+00  0.00000000e+00  6.14937027e-03  0.00000000e+00
 -5.66863513e-01 -1.13454062e-01  0.00000000e+00 -8.81115431e-02  2.42751544e-01
 -5.66863513e-01 -1.13454062e-01  0.00000000e+00  8.81115431e-02  2.42751544e-01
  0.00000000e+00  0.00000000e+00  0.00000000e+00  9.67464412e-01  0.00000000e+00
  0.00000000e+00 -1.03444323e+00  0.00000000e+00  0.00000000e+00  0.00000000e+00
  4.25213598e-03  0.00000000e+00  0.00000000e+00  0.00000000e+00  0.00000000e+00
  0.00000000e+00  3.22824387e-03  0.00000000e+00  0.00000000e+00  0.00000000e+00
  0.00000000e+00  3.22824387e-03  0.00000000e+00  0.00000000e+00  0.00000000e+00
  0.00000000e+00  0.00000000e+00  0.00000000e+00  7.29207542e-01  0.00000000e+00
  0.00000000e+00 -1.77660196e+00  0.00000000e+00  0.00000000e+00  0.00000000e+00
 -4.79082881e-02  0.00000000e+00  0.00000000e+00 -3.86153033e-01 -8.43196835e-01
  0.00000000e+00 -3.00822154e-01  1.91869677e-01  3.86153033e-01  8.43196835e-01
  0.00000000e+00 -3.00822154e-01 -1.91869677e-01  2.01719054e-01  5.28966069e-01
 -5.25507933e-01  0.00000000e+00  0.00000000e+00 -1.19979044e-01  0.00000000e+00
  0.00000000e+00  7.28945913e-01 -1.14100939e-01  0.00000000e+00  0.00000000e+00
 -9.28052296e-04  0.00000000e+00 -3.28466073e-01  2.14955470e-01  0.00000000e+00
 -3.19839532e-01 -5.54360522e-01 -3.28466073e-01  2.14955470e-01  0.00000000e+00
  3.19839532e-01 -5.54360522e-01  0.00000000e+00  0.00000000e+00  0.00000000e+00
  0.00000000e+00  0.00000000e+00  0.00000000e+00  0.00000000e+00  0.00000000e+00
  0.00000000e+00  0.00000000e+00  0.00000000e+00  0.00000000e+00  0.00000000e+00
  1.29542177e-01  0.00000000e+00  0.00000000e+00 -6.86608601e-01  0.00000000e+00
  0.00000000e+00  0.00000000e+00  0.00000000e+00  6.86608601e-01  0.00000000e+00
  0.00000000e+00  0.00000000e+00  0.00000000e+00  0.00000000e+00  4.18608560e-02
  0.00000000e+00  0.00000000e+00  6.26544593e-01  0.00000000e+00  0.00000000e+00
  0.00000000e+00 -1.59855698e-01  0.00000000e+00  0.00000000e+00  0.00000000e+00
  0.00000000e+00  0.00000000e+00 -7.69534296e-01  0.00000000e+00  0.00000000e+00
  0.00000000e+00  0.00000000e+00 -7.69534296e-01  0.00000000e+00  0.00000000e+00
  7.18820877e-01  1.58019384e+00 -3.06228791e+00  0.00000000e+00  0.00000000e+00
 -1.29388823e-01  0.00000000e+00  0.00000000e+00 -9.68626570e-01  1.13462852e-01
  0.00000000e+00  0.00000000e+00 -1.07626728e-01  0.00000000e+00  8.45111286e-01
  3.91643842e-01  0.00000000e+00  3.74754502e-01  2.56431994e-02  8.45111286e-01
  3.91643842e-01  0.00000000e+00 -3.74754502e-01  2.56431994e-02  0.00000000e+00
  0.00000000e+00  0.00000000e+00  0.00000000e+00  2.79199201e-03  0.00000000e+00
  0.00000000e+00 -9.05098122e-01  0.00000000e+00  0.00000000e+00  0.00000000e+00
  3.04895993e-02  0.00000000e+00  0.00000000e+00 -3.90539440e-01 -9.18931267e-02
  0.00000000e+00  4.82135853e-01  6.92769464e-01  3.90539440e-01  9.18931267e-02
  0.00000000e+00  4.82135853e-01 -6.92769464e-01  0.00000000e+00  0.00000000e+00
  0.00000000e+00  0.00000000e+00  8.53381193e-01  0.00000000e+00  0.00000000e+00
  1.53542022e-01  0.00000000e+00  0.00000000e+00  0.00000000e+00 -1.45108959e-01
  0.00000000e+00  0.00000000e+00  3.14170575e-01  3.28362685e-01  0.00000000e+00
  7.29757946e-01 -5.60927316e-01 -3.14170575e-01 -3.28362685e-01  0.00000000e+00
  7.29757946e-01  5.60927316e-01  3.02757884e-01  7.74721392e-01  7.69633693e-01
  0.00000000e+00  0.00000000e+00  6.76563264e-01  0.00000000e+00  0.00000000e+00
  1.70861865e-01 -5.46723191e-02  0.00000000e+00  0.00000000e+00  2.25312568e-01
  0.00000000e+00 -4.87664638e-01 -1.53655172e-01  0.00000000e+00 -7.45472922e-01
  5.37722088e-01 -4.87664638e-01 -1.53655172e-01  0.00000000e+00  7.45472922e-01
  5.37722088e-01  0.00000000e+00  0.00000000e+00  0.00000000e+00  6.03041882e-03
  0.00000000e+00  0.00000000e+00 -3.19465417e-01  0.00000000e+00  0.00000000e+00
  0.00000000e+00 -1.04606053e+00  0.00000000e+00  0.00000000e+00  0.00000000e+00
  0.00000000e+00  0.00000000e+00  4.06787397e-01  0.00000000e+00  0.00000000e+00
  0.00000000e+00  0.00000000e+00  4.06787397e-01  0.00000000e+00  0.00000000e+00
  0.00000000e+00  0.00000000e+00  0.00000000e+00  0.00000000e+00  0.00000000e+00
  0.00000000e+00  0.00000000e+00  0.00000000e+00  0.00000000e+00  0.00000000e+00
  0.00000000e+00  0.00000000e+00  0.00000000e+00  1.07068780e+00  0.00000000e+00
  0.00000000e+00  3.78927726e-01  0.00000000e+00  0.00000000e+00  0.00000000e+00
  0.00000000e+00 -3.78927726e-01  0.00000000e+00  0.00000000e+00  8.50566940e-02
  1.54438863e-01 -5.93799993e-01  0.00000000e+00  0.00000000e+00 -3.04524494e-02
  0.00000000e+00  0.00000000e+00 -5.57634361e-01 -1.09200500e+00  0.00000000e+00
  0.00000000e+00 -1.65357244e-01  0.00000000e+00  3.26872315e-01  4.08128015e-02
  0.00000000e+00  3.62082069e-01  3.17770228e-01  3.26872315e-01  4.08128015e-02
  0.00000000e+00 -3.62082069e-01  3.17770228e-01  1.23411078e-01  1.36491109e-01
 -2.30270138e+00  0.00000000e+00  0.00000000e+00 -4.25262734e-01  0.00000000e+00
  0.00000000e+00 -9.25425362e-01 -1.20262831e-01  0.00000000e+00  0.00000000e+00
  1.16474271e+00  0.00000000e+00  1.27482581e+00  1.92191834e-01  0.00000000e+00
  6.23774972e-01 -5.03891748e-01  1.27482581e+00  1.92191834e-01  0.00000000e+00
 -6.23774972e-01 -5.03891748e-01  0.00000000e+00  0.00000000e+00  0.00000000e+00
  0.00000000e+00  4.94321559e-01  0.00000000e+00  0.00000000e+00  1.16103698e+00
  0.00000000e+00  0.00000000e+00  0.00000000e+00  1.33043420e+00  0.00000000e+00
  0.00000000e+00  1.12473107e+00  2.92161264e-01  0.00000000e+00  6.16092177e-01
 -4.97302869e-01 -1.12473107e+00 -2.92161264e-01  0.00000000e+00  6.16092177e-01
  4.97302869e-01
Total SCF Density                          R   N=         300
  2.00386292e+00 -5.82430564e-03  4.35699227e-01 -1.30975060e-02  4.31760894e-01
  5.20341757e-01  0.00000000e+00  0.00000000e+00  0.00000000e+00  7.95769144e-01
  0.00000000e+00  0.00000000e+00  0.00000000e+00  0.00000000e+00  4.83006279e-01
  4.52179819e-03 -9.38840909e-02 -3.26723077e-01  0.00000000e+00  0.00000000e+00
  6.10828096e-01  0.00000000e+00  0.00000000e+00  0.00000000e+00  6.24660115e-01
  0.00000000e+00  0.00000000e+00  4.90343541e-01  0.00000000e+00  0.00000000e+00
  0.00000000e+00  0.00000000e+00  2.14636801e-01  0.00000000e+00  0.00000000e+00
  9.53796223e-02  9.12348907e-04 -1.23240300e-01 -2.68338176e-01  0.00000000e+00
  0.00000000e+00  3.96097669e-01  0.00000000e+00  0.00000000e+00  2.66088543e-01
  8.60644020e-05 -4.34411141e-03 -1.18036141e-02  0.00000000e+00  0.00000000e+00
  1.98882688e-02  0.00000000e+00  0.00000000e+00  1.30874128e-02  6.51489038e-04
  0.00000000e+00  0.00000000e+00  0.00000000e+00  2.31504594e-02  0.00000000e+00
  0.00000000e+00  1.81725677e-02  0.00000000e+00  0.00000000e+00  0.00000000e+00
  6.73491519e-04  0.00000000e+00  0.00000000e+00  0.00000000e+00  0.00000000e+00
  2.67934072e-02  0.00000000e+00  0.00000000e+00  1.19063695e-02  0.00000000e+00
  0.00000000e+00  0.00000000e+00  1.48628848e-03 -2.92687138e-04 -1.37927346e-03
  9.49974151e-04  0.00000000e+00  0.00000000e+00 -5.55586613e-03  0.00000000e+00
  0.00000000e+00 -3.27179073e-03 -1.74061528e-04  0.00000000e+00  0.00000000e+00
  6.24114338e-05  0.00000000e+00  0.00000000e+00  0.00000000e+00  0.00000000e+00
  0.00000000e+00  0.00000000e+00  0.00000000e+00  0.00000000e+00  0.00000000e+00
  0.00000000e+00  0.00000000e+00  0.00000000e+00  0.00000000e+00  0.00000000e+00
 -3.17817050e-03  1.12701180e-01  2.73796976e-04  0.00000000e+00 -3.24649782e-01
  2.57302616e-01  0.00000000e+00 -1.44266842e-01  1.44317722e-01  7.91254088e-03
  0.00000000e+00 -1.80090284e-02 -3.14697112e-03  0.00000000e+00  3.81624930e-01
  8.30565135e-04 -2.84248210e-03 -1.96264541e-02  0.00000000e+00 -8.60684326e-02
  4.30912716e-02  0.00000000e+00 -3.82468176e-02  2.73825538e-02  1.39145704e-03
  0.00000000e+00 -4.77440287e-03 -4.12061492e-04  0.00000000e+00  7.73674037e-02
  1.84107954e-02  0.00000000e+00  0.00000000e+00  0.00000000e+00  3.97594975e-02
  0.00000000e+00  0.00000000e+00  3.12102731e-02  0.00000000e+00  0.00000000e+00
  0.00000000e+00  1.15668048e-03  0.00000000e+00  0.00000000e+00  0.00000000e+00
  0.00000000e+00  0.00000000e+00  1.98652795e-03 -1.74170346e-03  2.39974082e-02
  5.55949395e-03  0.00000000e+00 -2.28714712e-02  4.08916890e-02  0.00000000e+00
 -1.01635520e-02  2.20362636e-02  1.23894260e-03  0.00000000e+00 -1.26873018e-03
 -5.32234116e-04  0.00000000e+00  4.35448694e-02  7.23157185e-03  0.00000000e+00
  5.99871793e-03  1.40598825e-03 -2.07027933e-02 -2.08775424e-02  0.00000000e+00
  3.22354905e-02  5.36705310e-03  0.00000000e+00  1.43247052e-02  6.42126990e-03
  2.35447244e-04  0.00000000e+00  1.78817266e-03  5.64023440e-05  0.00000000e+00
 -2.65918596e-02 -5.54360168e-03  0.00000000e+00 -2.59696806e-03  3.13711316e-03
 -3.17817050e-03  1.12701180e-01  2.73796976e-04  0.00000000e+00  3.24649782e-01
  2.57302616e-01  0.00000000e+00  1.44266842e-01  1.44317722e-01  7.91254088e-03
  0.00000000e+00  1.80090284e-02 -3.14697112e-03  0.00000000e+00 -5.47978884e-02
 -3.83333608e-02  0.00000000e+00  1.27990242e-02  1.67419246e-02  3.81624930e-01
  8.30565135e-04 -2.84248210e-03 -1.96264541e-02  0.00000000e+00  8.60684326e-02
  4.30912716e-02  0.00000000e+00  3.82468176e-02  2.73825538e-02  1.39145704e-03
  0.00000000e+00  4.77440287e-03 -4.12061492e-04  0.00000000e+00 -3.83333608e-02
 -1.22628228e-02  0.00000000e+00 -9.19509259e-04  5.94468847e-03  7.73674037e-02
  1.84107954e-02  0.00000000e+00  0.00000000e+00  0.00000000e+00  3.97594975e-02
  0.00000000e+00  0.00000000e+00  3.12102731e-02  0.00000000e+00  0.00000000e+00
  0.00000000e+00  1.15668048e-03  0.00000000e+00  0.00000000e+00  0.00000000e+00
  0.00000000e+00  0.00000000e+00  1.98652795e-03  0.00000000e+00  0.00000000e+00
  0.00000000e+00  0.00000000e+00  1.98652795e-03  1.74170346e-03 -2.39974082e-02
 -5.55949395e-03  0.00000000e+00 -2.28714712e-02 -4.08916890e-02  0.00000000e+00
 -1.01635520e-02 -2.20362636e-02 -1.23894260e-03  0.00000000e+00 -1.26873018e-03
  5.32234116e-04  0.00000000e+00 -1.27990242e-02  9.19509259e-04  0.00000000e+00
 -3.83268317e-03 -4.55882908e-04 -4.35448694e-02 -7.23157185e-03  0.00000000e+00
  5.99871793e-03  1.40598825e-03 -2.07027933e-02 -2.08775424e-02  0.00000000e+00
 -3.22354905e-02  5.36705310e-03  0.00000000e+00 -1.43247052e-02  6.42126990e-03
  2.35447244e-04  0.00000000e+00 -1.78817266e-03  5.64023440e-05  0.00000000e+00
  1.67419246e-02  5.94468847e-03  0.00000000e+00  4.55882908e-04 -1.16563358e-03
 -2.65918596e-02 -5.54360168e-03  0.00000000e+00  2.59696806e-03  3.13711316e-03
Cartesian Gradient                         R   N=           9
 -3.52471742e-32  0.00000000e+00 -9.20796305e-05  2.39012863e-21 -7.80675255e-05
  4.60398153e-05 -2.39012863e-21  7.80675255e-05  4.60398153e-05
