
    -----------------------------------------------------------------------
          Psi4: An Open-Source Ab Initio Electronic Structure Package
                               Psi4 1.9.1 release

                         Git: Rev {} zzzzzzz 


    D. G. A. Smith, L. A. Burns, A. C. Simmonett, R. M. Parrish,
    M. C. Schieber, R. Galvelis, P. Kraus, H. Kruse, R. Di Remigio,
    A. Alenaizan, A. M. James, S. Lehtola, J. P. Misiewicz, M. Scheurer,
    R. A. Shaw, J. B. Schriber, Y. Xie, Z. L. Glick, D. A. Sirianni,
    J. S. O'Brien, J. M. Waldrop, A. Kumar, E. G. Hohenstein,
    B. P. Pritchard, B. R. Brooks, H. F. Schaefer III, A. Yu. Sokolov,
    K. Patkowski, A. E. DePrince III, U. Bozkaya, R. A. King,
    F. A. Evangelista, J. M. Turney, T. D. Crawford, C. D. Sherrill,
    J. Chem. Phys. 152(18) 184108 (2020). https://doi.org/10.1063/5.0006002

                            Additional Code Authors
    E. T. Seidl, C. L. Janssen, E. F. Valeev, M. L. Leininger,
    J. F. Gonthier, R. M. Richard, H. R. McAlexander, M. Saitow, X. Wang,
    P. Verma, M. H. Lechner, A. Jiang, S. Behnle, A. G. Heide,
    M. F. Herbst, and D. L. Poole

             Previous Authors, Complete List of Code Contributors,
                       and Citations for Specific Modules
    https://github.com/psi4/psi4/blob/master/codemeta.json
    https://github.com/psi4/psi4/graphs/contributors
    http://psicode.org/psi4manual/master/introduction.html#citing-psifour

    -----------------------------------------------------------------------


    Psi4 started on: Monday, 06 May 2024 11:16AM

    Process ID: 65395
    Host:       PC001.IRVING.UPEI.CA
    PSIDATADIR: /opt/anaconda3/envs/psi4fun/share/psi4
    Memory:     953.7 MiB
    Threads:    4
      Threads set to 4 by Python driver.
Molecule: Setting geometry variable angle to 94.616731

Scratch directory: /tmp/
   => Libint2 <=

    Primary   basis highest AM E, G, H:  5, 4, 3
    Auxiliary basis highest AM E, G, H:  6, 5, 4
    Onebody   basis highest AM E, G, H:  6, 5, 4
    Solid Harmonics ordering:            Gaussian

*** tstart() called on PC001.IRVING.UPEI.CA
*** at Mon May  6 11:16:08 2024

   => Loading Basis Set <=

    Name: CC-PVDZ
    Role: ORBITAL
    Keyword: BASIS
    atoms 1   entry O          line   198 file /opt/anaconda3/envs/psi4fun/share/psi4/basis/cc-pvdz.gbs 
    atoms 2-3 entry H          line    22 file /opt/anaconda3/envs/psi4fun/share/psi4/basis/cc-pvdz.gbs 


         ---------------------------------------------------------
                                   SCF
               by Justin Turney, Rob Parrish, Andy Simmonett
                          and Daniel G. A. Smith
                              RHF Reference
                        4 Threads,    953 MiB Core
         ---------------------------------------------------------

  ==> Geometry <==

    Molecular point group: c2v
    Full point group: C2v

    Geometry (in Angstrom), charge = 0, multiplicity = 1:

       Center              X                  Y                   Z               Mass       
    ------------   -----------------  -----------------  -----------------  -----------------
         O            0.000000000000     0.000000000000    -0.071813817724    15.994914619570
         H            0.000000000000    -0.695588437489     0.569868700553     1.007825032230
         H            0.000000000000     0.695588437489     0.569868700553     1.007825032230

  Running in c2v symmetry.

  Rotational constants: A =     22.87106  B =     17.28529  C =      9.84484 [cm^-1]
  Rotational constants: A = 685657.21508  B = 518199.93482  C = 295140.93445 [MHz]
  Nuclear repulsion =    9.327107008288600

  Charge       = 0
  Multiplicity = 1
  Electrons    = 10
  Nalpha       = 5
  Nbeta        = 5

  ==> Algorithm <==

  SCF Algorithm Type is DIRECT.
  DIIS enabled.
  MOM disabled.
  Fractional occupation disabled.
  Guess Type is SAD.
  Energy threshold   = 1.00e-06
  Density threshold  = 1.00e-06
  Integral threshold = 1.00e-08

  ==> Primary Basis <==

  -AO BASIS SET INFORMATION:
    Name                   = CC-PVDZ
    Blend                  = CC-PVDZ
    Total number of shells = 12
    Number of primitives   = 32
    Number of AO           = 25
    Number of SO           = 24
    Maximum AM             = 2
    Spherical Harmonics    = TRUE

  -Contraction Scheme:
    Atom   Type   All Primitives // Shells:
   ------ ------ --------------------------
       1     O     17s 4p 1d // 3s 2p 1d 
       2     H     4s 1p // 2s 1p 
       3     H     4s 1p // 2s 1p 

   => Loading Basis Set <=

    Name: (CC-PVDZ AUX)
    Role: JKFIT
    Keyword: DF_BASIS_SCF
    atoms 1   entry O          line   221 file /opt/anaconda3/envs/psi4fun/share/psi4/basis/cc-pvdz-jkfit.gbs 
    atoms 2-3 entry H          line    51 file /opt/anaconda3/envs/psi4fun/share/psi4/basis/cc-pvdz-jkfit.gbs 

  Starting with a DF guess...

  ==> Integral Setup <==

  DFHelper Memory: AOs need 0.001 GiB; user supplied 0.698 GiB. 
  Using in-core AOs.

  ==> MemDFJK: Density-Fitted J/K Matrices <==

    J tasked:                   Yes
    K tasked:                   Yes
    wK tasked:                   No
    OpenMP threads:               4
    Memory [MiB]:               715
    Algorithm:                 Core
    Schwarz Cutoff:           1E-08
    Mask sparsity (%):       0.0000
    Fitting Condition:        1E-10

   => Auxiliary Basis Set <=

  -AO BASIS SET INFORMATION:
    Name                   = (CC-PVDZ AUX)
    Blend                  = CC-PVDZ-JKFIT
    Total number of shells = 42
    Number of primitives   = 42
    Number of AO           = 131
    Number of SO           = 116
    Maximum AM             = 3
    Spherical Harmonics    = TRUE

  -Contraction Scheme:
    Atom   Type   All Primitives // Shells:
   ------ ------ --------------------------
       1     O     10s 7p 5d 2f // 10s 7p 5d 2f 
       2     H     4s 3p 2d // 4s 3p 2d 
       3     H     4s 3p 2d // 4s 3p 2d 

  Minimum eigenvalue in the overlap matrix is 3.0671065745E-02.
  Reciprocal condition number of the overlap matrix is 9.6620436844E-03.
    Using symmetric orthogonalization.

  ==> Pre-Iterations <==

  SCF Guess: Superposition of Atomic Densities via on-the-fly atomic UHF (no occupation information).

   -------------------------
    Irrep   Nso     Nmo    
   -------------------------
     A1        11      11 
     A2         2       2 
     B1         4       4 
     B2         7       7 
   -------------------------
    Total      24      24
   -------------------------

  ==> Iterations <==

                           Total Energy        Delta E     RMS |[F,P]|

   @DF-RHF iter SAD:   -75.53953490009368   -7.55395e+01   0.00000e+00 
   @DF-RHF iter   1:   -75.95024148894181   -4.10707e-01   3.05247e-02 DIIS/ADIIS
   @DF-RHF iter   2:   -76.00445420512054   -5.42127e-02   1.74623e-02 DIIS/ADIIS
   @DF-RHF iter   3:   -76.02354425122066   -1.90900e-02   2.29424e-03 DIIS/ADIIS
   @DF-RHF iter   4:   -76.02409701159760   -5.52760e-04   3.67841e-04 DIIS/ADIIS
   @DF-RHF iter   5:   -76.02411557283200   -1.85612e-05   6.66489e-05 DIIS
   @DF-RHF iter   6:   -76.02411641493312   -8.42101e-07   9.57340e-06 DIIS
   @DF-RHF iter   7:   -76.02411643238139   -1.74483e-08   8.05879e-07 DIIS

  DF guess converged.

  ==> DirectJK: Integral-Direct J/K Matrices <==

    J tasked:                  Yes
    K tasked:                  Yes
    wK tasked:                  No
    Integrals threads:           4
    Screening Type:           CSAM
    Screening Cutoff:        1E-08
    Incremental Fock:           No

   @RHF iter   8:   -76.02414166183837   -7.60241e+01   1.33323e-05 DIIS
   @RHF iter   9:   -76.02414167793752   -1.60992e-08   2.31599e-06 DIIS
   @RHF iter  10:   -76.02414167848642   -5.48894e-10   5.86175e-07 DIIS
  Energy and wave function converged.


  ==> Post-Iterations <==

    Orbital Energies [Eh]
    ---------------------

    Doubly Occupied:                                                      

       1A1   -20.553396     2A1    -1.350785     1B2    -0.684575  
       3A1    -0.589234     1B1    -0.497338  

    Virtual:                                                              

       4A1     0.184551     2B2     0.259228     3B2     0.767164  
       5A1     0.905465     6A1     1.177993     2B1     1.198079  
       4B2     1.262805     7A1     1.346601     1A2     1.516568  
       3B1     1.615969     8A1     1.847085     5B2     2.008504  
       6B2     2.462429     9A1     2.542355     2A2     3.312240  
       4B1     3.344048    10A1     3.514404    11A1     3.836820  
       7B2     4.208502  

    Final Occupation by Irrep:
             A1    A2    B1    B2 
    DOCC [     3,    0,    1,    1 ]
    NA   [     3,    0,    1,    1 ]
    NB   [     3,    0,    1,    1 ]

  @RHF Final Energy:   -76.02414167848642

   => Energetics <=

    Nuclear Repulsion Energy =              9.3271070082885998
    One-Electron Energy =                -123.3518423604267014
    Two-Electron Energy =                  38.0005936736516858
    Total Energy =                        -76.0241416784864157

Computation Completed


Properties will be evaluated at   0.000000,   0.000000,   0.000000 [a0]

Properties computed using the SCF density matrix


 Multipole Moments:

 ------------------------------------------------------------------------------------
     Multipole            Electronic (a.u.)      Nuclear  (a.u.)        Total (a.u.)
 ------------------------------------------------------------------------------------

 L = 1.  Multiply by 2.5417464519 to convert [e a0] to [Debye]
 Dipole X            :          0.0000000            0.0000000            0.0000000
 Dipole Y            :          0.0000000            0.0000000            0.0000000
 Dipole Z            :         -0.2074492            1.0681240            0.8606747
 Magnitude           :                                                    0.8606747

 ------------------------------------------------------------------------------------

*** tstop() called on PC001.IRVING.UPEI.CA at Mon May  6 11:16:08 2024
Module time:
	user time   =       1.28 seconds =       0.02 minutes
	system time =       0.06 seconds =       0.00 minutes
	total time  =          0 seconds =       0.00 minutes
Total time:
	user time   =      14.07 seconds =       0.23 minutes
	system time =       0.77 seconds =       0.01 minutes
	total time  =          3 seconds =       0.05 minutes
Molecule: Setting geometry variable angle to 95.616731

Scratch directory: /tmp/
   => Libint2 <=

    Primary   basis highest AM E, G, H:  5, 4, 3
    Auxiliary basis highest AM E, G, H:  6, 5, 4
    Onebody   basis highest AM E, G, H:  6, 5, 4
    Solid Harmonics ordering:            Gaussian

*** tstart() called on PC001.IRVING.UPEI.CA
*** at Mon May  6 11:16:08 2024

   => Loading Basis Set <=

    Name: CC-PVDZ
    Role: ORBITAL
    Keyword: BASIS
    atoms 1   entry O          line   198 file /opt/anaconda3/envs/psi4fun/share/psi4/basis/cc-pvdz.gbs 
    atoms 2-3 entry H          line    22 file /opt/anaconda3/envs/psi4fun/share/psi4/basis/cc-pvdz.gbs 


         ---------------------------------------------------------
                                   SCF
               by Justin Turney, Rob Parrish, Andy Simmonett
                          and Daniel G. A. Smith
                              RHF Reference
                        4 Threads,    953 MiB Core
         ---------------------------------------------------------

  ==> Geometry <==

    Molecular point group: c2v
    Full point group: C2v

    Geometry (in Angstrom), charge = 0, multiplicity = 1:

       Center              X                  Y                   Z               Mass       
    ------------   -----------------  -----------------  -----------------  -----------------
         O            0.000000000000     0.000000000000    -0.071131751354    15.994914619570
         H            0.000000000000    -0.701161616887     0.564456256427     1.007825032230
         H            0.000000000000     0.701161616887     0.564456256427     1.007825032230

  Running in c2v symmetry.

  Rotational constants: A =     23.31178  B =     17.01160  C =      9.83476 [cm^-1]
  Rotational constants: A = 698869.48329  B = 509994.85507  C = 294838.57662 [MHz]
  Nuclear repulsion =    9.324083552154528

  Charge       = 0
  Multiplicity = 1
  Electrons    = 10
  Nalpha       = 5
  Nbeta        = 5

  ==> Algorithm <==

  SCF Algorithm Type is DIRECT.
  DIIS enabled.
  MOM disabled.
  Fractional occupation disabled.
  Guess Type is SAD.
  Energy threshold   = 1.00e-06
  Density threshold  = 1.00e-06
  Integral threshold = 1.00e-08

  ==> Primary Basis <==

  -AO BASIS SET INFORMATION:
    Name                   = CC-PVDZ
    Blend                  = CC-PVDZ
    Total number of shells = 12
    Number of primitives   = 32
    Number of AO           = 25
    Number of SO           = 24
    Maximum AM             = 2
    Spherical Harmonics    = TRUE

  -Contraction Scheme:
    Atom   Type   All Primitives // Shells:
   ------ ------ --------------------------
       1     O     17s 4p 1d // 3s 2p 1d 
       2     H     4s 1p // 2s 1p 
       3     H     4s 1p // 2s 1p 

   => Loading Basis Set <=

    Name: (CC-PVDZ AUX)
    Role: JKFIT
    Keyword: DF_BASIS_SCF
    atoms 1   entry O          line   221 file /opt/anaconda3/envs/psi4fun/share/psi4/basis/cc-pvdz-jkfit.gbs 
    atoms 2-3 entry H          line    51 file /opt/anaconda3/envs/psi4fun/share/psi4/basis/cc-pvdz-jkfit.gbs 

  Starting with a DF guess...

  ==> Integral Setup <==

  DFHelper Memory: AOs need 0.001 GiB; user supplied 0.698 GiB. 
  Using in-core AOs.

  ==> MemDFJK: Density-Fitted J/K Matrices <==

    J tasked:                   Yes
    K tasked:                   Yes
    wK tasked:                   No
    OpenMP threads:               4
    Memory [MiB]:               715
    Algorithm:                 Core
    Schwarz Cutoff:           1E-08
    Mask sparsity (%):       0.0000
    Fitting Condition:        1E-10

   => Auxiliary Basis Set <=

  -AO BASIS SET INFORMATION:
    Name                   = (CC-PVDZ AUX)
    Blend                  = CC-PVDZ-JKFIT
    Total number of shells = 42
    Number of primitives   = 42
    Number of AO           = 131
    Number of SO           = 116
    Maximum AM             = 3
    Spherical Harmonics    = TRUE

  -Contraction Scheme:
    Atom   Type   All Primitives // Shells:
   ------ ------ --------------------------
       1     O     10s 7p 5d 2f // 10s 7p 5d 2f 
       2     H     4s 3p 2d // 4s 3p 2d 
       3     H     4s 3p 2d // 4s 3p 2d 

  Minimum eigenvalue in the overlap matrix is 3.0742250264E-02.
  Reciprocal condition number of the overlap matrix is 9.6878199828E-03.
    Using symmetric orthogonalization.

  ==> Pre-Iterations <==

  SCF Guess: Superposition of Atomic Densities via on-the-fly atomic UHF (no occupation information).

   -------------------------
    Irrep   Nso     Nmo    
   -------------------------
     A1        11      11 
     A2         2       2 
     B1         4       4 
     B2         7       7 
   -------------------------
    Total      24      24
   -------------------------

  ==> Iterations <==

                           Total Energy        Delta E     RMS |[F,P]|

   @DF-RHF iter SAD:   -75.53807479433701   -7.55381e+01   0.00000e+00 
   @DF-RHF iter   1:   -75.95099771672011   -4.12923e-01   3.05024e-02 DIIS/ADIIS
   @DF-RHF iter   2:   -76.00510820914681   -5.41105e-02   1.74210e-02 DIIS/ADIIS
   @DF-RHF iter   3:   -76.02411121481596   -1.90030e-02   2.29017e-03 DIIS/ADIIS
   @DF-RHF iter   4:   -76.02466313874686   -5.51924e-04   3.66118e-04 DIIS/ADIIS
   @DF-RHF iter   5:   -76.02468152632964   -1.83876e-05   6.61190e-05 DIIS
   @DF-RHF iter   6:   -76.02468235618863   -8.29859e-07   9.51731e-06 DIIS
   @DF-RHF iter   7:   -76.02468237349184   -1.73032e-08   7.96976e-07 DIIS

  DF guess converged.

  ==> DirectJK: Integral-Direct J/K Matrices <==

    J tasked:                  Yes
    K tasked:                  Yes
    wK tasked:                  No
    Integrals threads:           4
    Screening Type:           CSAM
    Screening Cutoff:        1E-08
    Incremental Fock:           No

   @RHF iter   8:   -76.02470710777071   -7.60247e+01   1.31887e-05 DIIS
   @RHF iter   9:   -76.02470712342644   -1.56557e-08   2.27672e-06 DIIS
   @RHF iter  10:   -76.02470712395636   -5.29923e-10   5.64106e-07 DIIS
  Energy and wave function converged.


  ==> Post-Iterations <==

    Orbital Energies [Eh]
    ---------------------

    Doubly Occupied:                                                      

       1A1   -20.552939     2A1    -1.349888     1B2    -0.686775  
       3A1    -0.587129     1B1    -0.497008  

    Virtual:                                                              

       4A1     0.184896     2B2     0.259084     3B2     0.769766  
       5A1     0.902028     6A1     1.175776     2B1     1.198296  
       4B2     1.261779     7A1     1.356403     1A2     1.512385  
       3B1     1.622500     8A1     1.848514     5B2     2.002291  
       6B2     2.462773     9A1     2.539556     2A2     3.315905  
       4B1     3.339699    10A1     3.520445    11A1     3.837415  
       7B2     4.204666  

    Final Occupation by Irrep:
             A1    A2    B1    B2 
    DOCC [     3,    0,    1,    1 ]
    NA   [     3,    0,    1,    1 ]
    NB   [     3,    0,    1,    1 ]

  @RHF Final Energy:   -76.02470712395636

   => Energetics <=

    Nuclear Repulsion Energy =              9.3240835521545282
    One-Electron Energy =                -123.3501024828880190
    Two-Electron Energy =                  38.0013118067771245
    Total Energy =                        -76.0247071239563610

Computation Completed


Properties will be evaluated at   0.000000,   0.000000,   0.000000 [a0]

Properties computed using the SCF density matrix


 Multipole Moments:

 ------------------------------------------------------------------------------------
     Multipole            Electronic (a.u.)      Nuclear  (a.u.)        Total (a.u.)
 ------------------------------------------------------------------------------------

 L = 1.  Multiply by 2.5417464519 to convert [e a0] to [Debye]
 Dipole X            :          0.0000000            0.0000000            0.0000000
 Dipole Y            :          0.0000000            0.0000000            0.0000000
 Dipole Z            :         -0.2026980            1.0579792            0.8552812
 Magnitude           :                                                    0.8552812

 ------------------------------------------------------------------------------------

*** tstop() called on PC001.IRVING.UPEI.CA at Mon May  6 11:16:09 2024
Module time:
	user time   =       1.29 seconds =       0.02 minutes
	system time =       0.06 seconds =       0.00 minutes
	total time  =          1 seconds =       0.02 minutes
Total time:
	user time   =      15.48 seconds =       0.26 minutes
	system time =       0.84 seconds =       0.01 minutes
	total time  =          4 seconds =       0.07 minutes
Molecule: Setting geometry variable angle to 96.616731

Scratch directory: /tmp/
   => Libint2 <=

    Primary   basis highest AM E, G, H:  5, 4, 3
    Auxiliary basis highest AM E, G, H:  6, 5, 4
    Onebody   basis highest AM E, G, H:  6, 5, 4
    Solid Harmonics ordering:            Gaussian

*** tstart() called on PC001.IRVING.UPEI.CA
*** at Mon May  6 11:16:09 2024

   => Loading Basis Set <=

    Name: CC-PVDZ
    Role: ORBITAL
    Keyword: BASIS
    atoms 1   entry O          line   198 file /opt/anaconda3/envs/psi4fun/share/psi4/basis/cc-pvdz.gbs 
    atoms 2-3 entry H          line    22 file /opt/anaconda3/envs/psi4fun/share/psi4/basis/cc-pvdz.gbs 


         ---------------------------------------------------------
                                   SCF
               by Justin Turney, Rob Parrish, Andy Simmonett
                          and Daniel G. A. Smith
                              RHF Reference
                        4 Threads,    953 MiB Core
         ---------------------------------------------------------

  ==> Geometry <==

    Molecular point group: c2v
    Full point group: C2v

    Geometry (in Angstrom), charge = 0, multiplicity = 1:

       Center              X                  Y                   Z               Mass       
    ------------   -----------------  -----------------  -----------------  -----------------
         O            0.000000000000     0.000000000000    -0.070444268026    15.994914619570
         H            0.000000000000    -0.706681400114     0.559000826772     1.007825032230
         H            0.000000000000     0.706681400114     0.559000826772     1.007825032230

  Running in c2v symmetry.

  Rotational constants: A =     23.76901  B =     16.74688  C =      9.82471 [cm^-1]
  Rotational constants: A = 712576.93182  B = 502058.98175  C = 294537.35462 [MHz]
  Nuclear repulsion =    9.321136068775052

  Charge       = 0
  Multiplicity = 1
  Electrons    = 10
  Nalpha       = 5
  Nbeta        = 5

  ==> Algorithm <==

  SCF Algorithm Type is DIRECT.
  DIIS enabled.
  MOM disabled.
  Fractional occupation disabled.
  Guess Type is SAD.
  Energy threshold   = 1.00e-06
  Density threshold  = 1.00e-06
  Integral threshold = 1.00e-08

  ==> Primary Basis <==

  -AO BASIS SET INFORMATION:
    Name                   = CC-PVDZ
    Blend                  = CC-PVDZ
    Total number of shells = 12
    Number of primitives   = 32
    Number of AO           = 25
    Number of SO           = 24
    Maximum AM             = 2
    Spherical Harmonics    = TRUE

  -Contraction Scheme:
    Atom   Type   All Primitives // Shells:
   ------ ------ --------------------------
       1     O     17s 4p 1d // 3s 2p 1d 
       2     H     4s 1p // 2s 1p 
       3     H     4s 1p // 2s 1p 

   => Loading Basis Set <=

    Name: (CC-PVDZ AUX)
    Role: JKFIT
    Keyword: DF_BASIS_SCF
    atoms 1   entry O          line   221 file /opt/anaconda3/envs/psi4fun/share/psi4/basis/cc-pvdz-jkfit.gbs 
    atoms 2-3 entry H          line    51 file /opt/anaconda3/envs/psi4fun/share/psi4/basis/cc-pvdz-jkfit.gbs 

  Starting with a DF guess...

  ==> Integral Setup <==

  DFHelper Memory: AOs need 0.001 GiB; user supplied 0.698 GiB. 
  Using in-core AOs.

  ==> MemDFJK: Density-Fitted J/K Matrices <==

    J tasked:                   Yes
    K tasked:                   Yes
    wK tasked:                   No
    OpenMP threads:               4
    Memory [MiB]:               715
    Algorithm:                 Core
    Schwarz Cutoff:           1E-08
    Mask sparsity (%):       0.0000
    Fitting Condition:        1E-10

   => Auxiliary Basis Set <=

  -AO BASIS SET INFORMATION:
    Name                   = (CC-PVDZ AUX)
    Blend                  = CC-PVDZ-JKFIT
    Total number of shells = 42
    Number of primitives   = 42
    Number of AO           = 131
    Number of SO           = 116
    Maximum AM             = 3
    Spherical Harmonics    = TRUE

  -Contraction Scheme:
    Atom   Type   All Primitives // Shells:
   ------ ------ --------------------------
       1     O     10s 7p 5d 2f // 10s 7p 5d 2f 
       2     H     4s 3p 2d // 4s 3p 2d 
       3     H     4s 3p 2d // 4s 3p 2d 

  Minimum eigenvalue in the overlap matrix is 3.0821235116E-02.
  Reciprocal condition number of the overlap matrix is 9.7161787173E-03.
    Using symmetric orthogonalization.

  ==> Pre-Iterations <==

  SCF Guess: Superposition of Atomic Densities via on-the-fly atomic UHF (no occupation information).

   -------------------------
    Irrep   Nso     Nmo    
   -------------------------
     A1        11      11 
     A2         2       2 
     B1         4       4 
     B2         7       7 
   -------------------------
    Total      24      24
   -------------------------

  ==> Iterations <==

                           Total Energy        Delta E     RMS |[F,P]|

   @DF-RHF iter SAD:   -75.53664657315034   -7.55366e+01   0.00000e+00 
   @DF-RHF iter   1:   -75.95168759964218   -4.15041e-01   3.04810e-02 DIIS/ADIIS
   @DF-RHF iter   2:   -76.00569587521018   -5.40083e-02   1.73809e-02 DIIS/ADIIS
   @DF-RHF iter   3:   -76.02461493341146   -1.89191e-02   2.28626e-03 DIIS/ADIIS
   @DF-RHF iter   4:   -76.02516607979577   -5.51146e-04   3.64461e-04 DIIS/ADIIS
   @DF-RHF iter   5:   -76.02518430938960   -1.82296e-05   6.56530e-05 DIIS
   @DF-RHF iter   6:   -76.02518512961868   -8.20229e-07   9.48665e-06 DIIS
   @DF-RHF iter   7:   -76.02518514693918   -1.73205e-08   8.08028e-07 DIIS

  DF guess converged.

  ==> DirectJK: Integral-Direct J/K Matrices <==

    J tasked:                  Yes
    K tasked:                  Yes
    wK tasked:                  No
    Integrals threads:           4
    Screening Type:           CSAM
    Screening Cutoff:        1E-08
    Incremental Fock:           No

   @RHF iter   8:   -76.02520938480977   -7.60252e+01   1.30410e-05 DIIS
   @RHF iter   9:   -76.02520940001747   -1.52077e-08   2.23695e-06 DIIS
   @RHF iter  10:   -76.02520940052869   -5.11221e-10   5.42063e-07 DIIS
  Energy and wave function converged.


  ==> Post-Iterations <==

    Orbital Energies [Eh]
    ---------------------

    Doubly Occupied:                                                      

       1A1   -20.552475     2A1    -1.349002     1B2    -0.688949  
       3A1    -0.585028     1B1    -0.496676  

    Virtual:                                                              

       4A1     0.185228     2B2     0.258940     3B2     0.772471  
       5A1     0.898394     6A1     1.173705     2B1     1.198517  
       4B2     1.260756     7A1     1.366307     1A2     1.508294  
       3B1     1.628954     8A1     1.850028     5B2     1.996048  
       6B2     2.463446     9A1     2.536825     2A2     3.319601  
       4B1     3.335205    10A1     3.525515    11A1     3.838678  
       7B2     4.200575  

    Final Occupation by Irrep:
             A1    A2    B1    B2 
    DOCC [     3,    0,    1,    1 ]
    NA   [     3,    0,    1,    1 ]
    NB   [     3,    0,    1,    1 ]

  @RHF Final Energy:   -76.02520940052869

   => Energetics <=

    Nuclear Repulsion Energy =              9.3211360687750524
    One-Electron Energy =                -123.3484303137297218
    Two-Electron Energy =                  38.0020848444259798
    Total Energy =                        -76.0252094005286949

Computation Completed


Properties will be evaluated at   0.000000,   0.000000,   0.000000 [a0]

Properties computed using the SCF density matrix


 Multipole Moments:

 ------------------------------------------------------------------------------------
     Multipole            Electronic (a.u.)      Nuclear  (a.u.)        Total (a.u.)
 ------------------------------------------------------------------------------------

 L = 1.  Multiply by 2.5417464519 to convert [e a0] to [Debye]
 Dipole X            :          0.0000000            0.0000000            0.0000000
 Dipole Y            :          0.0000000            0.0000000            0.0000000
 Dipole Z            :         -0.1979132            1.0477539            0.8498407
 Magnitude           :                                                    0.8498407

 ------------------------------------------------------------------------------------

*** tstop() called on PC001.IRVING.UPEI.CA at Mon May  6 11:16:09 2024
Module time:
	user time   =       1.30 seconds =       0.02 minutes
	system time =       0.06 seconds =       0.00 minutes
	total time  =          0 seconds =       0.00 minutes
Total time:
	user time   =      16.90 seconds =       0.28 minutes
	system time =       0.90 seconds =       0.02 minutes
	total time  =          4 seconds =       0.07 minutes
Molecule: Setting geometry variable angle to 97.616731

Scratch directory: /tmp/
   => Libint2 <=

    Primary   basis highest AM E, G, H:  5, 4, 3
    Auxiliary basis highest AM E, G, H:  6, 5, 4
    Onebody   basis highest AM E, G, H:  6, 5, 4
    Solid Harmonics ordering:            Gaussian

*** tstart() called on PC001.IRVING.UPEI.CA
*** at Mon May  6 11:16:09 2024

   => Loading Basis Set <=

    Name: CC-PVDZ
    Role: ORBITAL
    Keyword: BASIS
    atoms 1   entry O          line   198 file /opt/anaconda3/envs/psi4fun/share/psi4/basis/cc-pvdz.gbs 
    atoms 2-3 entry H          line    22 file /opt/anaconda3/envs/psi4fun/share/psi4/basis/cc-pvdz.gbs 


         ---------------------------------------------------------
                                   SCF
               by Justin Turney, Rob Parrish, Andy Simmonett
                          and Daniel G. A. Smith
                              RHF Reference
                        4 Threads,    953 MiB Core
         ---------------------------------------------------------

  ==> Geometry <==

    Molecular point group: c2v
    Full point group: C2v

    Geometry (in Angstrom), charge = 0, multiplicity = 1:

       Center              X                  Y                   Z               Mass       
    ------------   -----------------  -----------------  -----------------  -----------------
         O            0.000000000000     0.000000000000    -0.069751420094    15.994914619570
         H            0.000000000000    -0.712147366815     0.553502827039     1.007825032230
         H            0.000000000000     0.712147366815     0.553502827039     1.007825032230

  Running in c2v symmetry.

  Rotational constants: A =     24.24355  B =     16.49080  C =      9.81470 [cm^-1]
  Rotational constants: A = 726803.43720  B = 494381.62075  C = 294237.35486 [MHz]
  Nuclear repulsion =    9.318262347884160

  Charge       = 0
  Multiplicity = 1
  Electrons    = 10
  Nalpha       = 5
  Nbeta        = 5

  ==> Algorithm <==

  SCF Algorithm Type is DIRECT.
  DIIS enabled.
  MOM disabled.
  Fractional occupation disabled.
  Guess Type is SAD.
  Energy threshold   = 1.00e-06
  Density threshold  = 1.00e-06
  Integral threshold = 1.00e-08

  ==> Primary Basis <==

  -AO BASIS SET INFORMATION:
    Name                   = CC-PVDZ
    Blend                  = CC-PVDZ
    Total number of shells = 12
    Number of primitives   = 32
    Number of AO           = 25
    Number of SO           = 24
    Maximum AM             = 2
    Spherical Harmonics    = TRUE

  -Contraction Scheme:
    Atom   Type   All Primitives // Shells:
   ------ ------ --------------------------
       1     O     17s 4p 1d // 3s 2p 1d 
       2     H     4s 1p // 2s 1p 
       3     H     4s 1p // 2s 1p 

   => Loading Basis Set <=

    Name: (CC-PVDZ AUX)
    Role: JKFIT
    Keyword: DF_BASIS_SCF
    atoms 1   entry O          line   221 file /opt/anaconda3/envs/psi4fun/share/psi4/basis/cc-pvdz-jkfit.gbs 
    atoms 2-3 entry H          line    51 file /opt/anaconda3/envs/psi4fun/share/psi4/basis/cc-pvdz-jkfit.gbs 

  Starting with a DF guess...

  ==> Integral Setup <==

  DFHelper Memory: AOs need 0.001 GiB; user supplied 0.698 GiB. 
  Using in-core AOs.

  ==> MemDFJK: Density-Fitted J/K Matrices <==

    J tasked:                   Yes
    K tasked:                   Yes
    wK tasked:                   No
    OpenMP threads:               4
    Memory [MiB]:               715
    Algorithm:                 Core
    Schwarz Cutoff:           1E-08
    Mask sparsity (%):       0.0000
    Fitting Condition:        1E-10

   => Auxiliary Basis Set <=

  -AO BASIS SET INFORMATION:
    Name                   = (CC-PVDZ AUX)
    Blend                  = CC-PVDZ-JKFIT
    Total number of shells = 42
    Number of primitives   = 42
    Number of AO           = 131
    Number of SO           = 116
    Maximum AM             = 3
    Spherical Harmonics    = TRUE

  -Contraction Scheme:
    Atom   Type   All Primitives // Shells:
   ------ ------ --------------------------
       1     O     10s 7p 5d 2f // 10s 7p 5d 2f 
       2     H     4s 3p 2d // 4s 3p 2d 
       3     H     4s 3p 2d // 4s 3p 2d 

  Minimum eigenvalue in the overlap matrix is 3.0908107427E-02.
  Reciprocal condition number of the overlap matrix is 9.7471466094E-03.
    Using symmetric orthogonalization.

  ==> Pre-Iterations <==

  SCF Guess: Superposition of Atomic Densities via on-the-fly atomic UHF (no occupation information).

   -------------------------
    Irrep   Nso     Nmo    
   -------------------------
     A1        11      11 
     A2         2       2 
     B1         4       4 
     B2         7       7 
   -------------------------
    Total      24      24
   -------------------------

  ==> Iterations <==

                           Total Energy        Delta E     RMS |[F,P]|

   @DF-RHF iter SAD:   -75.53525006384953   -7.55353e+01   0.00000e+00 
   @DF-RHF iter   1:   -75.95231200865918   -4.17062e-01   3.04605e-02 DIIS/ADIIS
   @DF-RHF iter   2:   -76.00621799258066   -5.39060e-02   1.73419e-02 DIIS/ADIIS
   @DF-RHF iter   3:   -76.02505619223726   -1.88382e-02   2.28251e-03 DIIS/ADIIS
   @DF-RHF iter   4:   -76.02560662291816   -5.50431e-04   3.62876e-04 DIIS/ADIIS
   @DF-RHF iter   5:   -76.02562471128276   -1.80884e-05   6.52550e-05 DIIS
   @DF-RHF iter   6:   -76.02562552459332   -8.13311e-07   9.48298e-06 DIIS
   @DF-RHF iter   7:   -76.02562554210222   -1.75089e-08   8.38780e-07 DIIS

  DF guess converged.

  ==> DirectJK: Integral-Direct J/K Matrices <==

    J tasked:                  Yes
    K tasked:                  Yes
    wK tasked:                  No
    Integrals threads:           4
    Screening Type:           CSAM
    Screening Cutoff:        1E-08
    Incremental Fock:           No

   @RHF iter   8:   -76.02564928688830   -7.60256e+01   1.28909e-05 DIIS
   @RHF iter   9:   -76.02564930164812   -1.47598e-08   2.19696e-06 DIIS
   @RHF iter  10:   -76.02564930214099   -4.92875e-10   5.20204e-07 DIIS
  Energy and wave function converged.


  ==> Post-Iterations <==

    Orbital Energies [Eh]
    ---------------------

    Doubly Occupied:                                                      

       1A1   -20.552001     2A1    -1.348126     1B2    -0.691098  
       3A1    -0.582932     1B1    -0.496341  

    Virtual:                                                              

       4A1     0.185546     2B2     0.258797     3B2     0.775278  
       5A1     0.894582     6A1     1.171789     2B1     1.198740  
       4B2     1.259734     7A1     1.376261     1A2     1.504297  
       3B1     1.635326     8A1     1.851629     5B2     1.989788  
       6B2     2.464435     9A1     2.534167     2A2     3.323328  
       4B1     3.330572    10A1     3.529527    11A1     3.840685  
       7B2     4.196235  

    Final Occupation by Irrep:
             A1    A2    B1    B2 
    DOCC [     3,    0,    1,    1 ]
    NA   [     3,    0,    1,    1 ]
    NB   [     3,    0,    1,    1 ]

  @RHF Final Energy:   -76.02564930214099

   => Energetics <=

    Nuclear Repulsion Energy =              9.3182623478841595
    One-Electron Energy =                -123.3468256699403014
    Two-Electron Energy =                  38.0029140199151527
    Total Energy =                        -76.0256493021409909

Computation Completed


Properties will be evaluated at   0.000000,   0.000000,   0.000000 [a0]

Properties computed using the SCF density matrix


 Multipole Moments:

 ------------------------------------------------------------------------------------
     Multipole            Electronic (a.u.)      Nuclear  (a.u.)        Total (a.u.)
 ------------------------------------------------------------------------------------

 L = 1.  Multiply by 2.5417464519 to convert [e a0] to [Debye]
 Dipole X            :          0.0000000            0.0000000            0.0000000
 Dipole Y            :          0.0000000            0.0000000            0.0000000
 Dipole Z            :         -0.1930985            1.0374489            0.8443504
 Magnitude           :                                                    0.8443504

 ------------------------------------------------------------------------------------

*** tstop() called on PC001.IRVING.UPEI.CA at Mon May  6 11:16:10 2024
Module time:
	user time   =       1.26 seconds =       0.02 minutes
	system time =       0.06 seconds =       0.00 minutes
	total time  =          1 seconds =       0.02 minutes
Total time:
	user time   =      18.28 seconds =       0.30 minutes
	system time =       0.96 seconds =       0.02 minutes
	total time  =          5 seconds =       0.08 minutes
Molecule: Setting geometry variable angle to 98.616731

Scratch directory: /tmp/
   => Libint2 <=

    Primary   basis highest AM E, G, H:  5, 4, 3
    Auxiliary basis highest AM E, G, H:  6, 5, 4
    Onebody   basis highest AM E, G, H:  6, 5, 4
    Solid Harmonics ordering:            Gaussian

*** tstart() called on PC001.IRVING.UPEI.CA
*** at Mon May  6 11:16:10 2024

   => Loading Basis Set <=

    Name: CC-PVDZ
    Role: ORBITAL
    Keyword: BASIS
    atoms 1   entry O          line   198 file /opt/anaconda3/envs/psi4fun/share/psi4/basis/cc-pvdz.gbs 
    atoms 2-3 entry H          line    22 file /opt/anaconda3/envs/psi4fun/share/psi4/basis/cc-pvdz.gbs 


         ---------------------------------------------------------
                                   SCF
               by Justin Turney, Rob Parrish, Andy Simmonett
                          and Daniel G. A. Smith
                              RHF Reference
                        4 Threads,    953 MiB Core
         ---------------------------------------------------------

  ==> Geometry <==

    Molecular point group: c2v
    Full point group: C2v

    Geometry (in Angstrom), charge = 0, multiplicity = 1:

       Center              X                  Y                   Z               Mass       
    ------------   -----------------  -----------------  -----------------  -----------------
         O            0.000000000000     0.000000000000    -0.069053260322    15.994914619570
         H            0.000000000000    -0.717559100738     0.547962675923     1.007825032230
         H            0.000000000000     0.717559100738     0.547962675923     1.007825032230

  Running in c2v symmetry.

  Rotational constants: A =     24.73626  B =     16.24299  C =      9.80474 [cm^-1]
  Rotational constants: A = 741574.35657  B = 486952.62208  C = 293938.66287 [MHz]
  Nuclear repulsion =    9.315460271157722

  Charge       = 0
  Multiplicity = 1
  Electrons    = 10
  Nalpha       = 5
  Nbeta        = 5

  ==> Algorithm <==

  SCF Algorithm Type is DIRECT.
  DIIS enabled.
  MOM disabled.
  Fractional occupation disabled.
  Guess Type is SAD.
  Energy threshold   = 1.00e-06
  Density threshold  = 1.00e-06
  Integral threshold = 1.00e-08

  ==> Primary Basis <==

  -AO BASIS SET INFORMATION:
    Name                   = CC-PVDZ
    Blend                  = CC-PVDZ
    Total number of shells = 12
    Number of primitives   = 32
    Number of AO           = 25
    Number of SO           = 24
    Maximum AM             = 2
    Spherical Harmonics    = TRUE

  -Contraction Scheme:
    Atom   Type   All Primitives // Shells:
   ------ ------ --------------------------
       1     O     17s 4p 1d // 3s 2p 1d 
       2     H     4s 1p // 2s 1p 
       3     H     4s 1p // 2s 1p 

   => Loading Basis Set <=

    Name: (CC-PVDZ AUX)
    Role: JKFIT
    Keyword: DF_BASIS_SCF
    atoms 1   entry O          line   221 file /opt/anaconda3/envs/psi4fun/share/psi4/basis/cc-pvdz-jkfit.gbs 
    atoms 2-3 entry H          line    51 file /opt/anaconda3/envs/psi4fun/share/psi4/basis/cc-pvdz-jkfit.gbs 

  Starting with a DF guess...

  ==> Integral Setup <==

  DFHelper Memory: AOs need 0.001 GiB; user supplied 0.698 GiB. 
  Using in-core AOs.

  ==> MemDFJK: Density-Fitted J/K Matrices <==

    J tasked:                   Yes
    K tasked:                   Yes
    wK tasked:                   No
    OpenMP threads:               4
    Memory [MiB]:               715
    Algorithm:                 Core
    Schwarz Cutoff:           1E-08
    Mask sparsity (%):       0.0000
    Fitting Condition:        1E-10

   => Auxiliary Basis Set <=

  -AO BASIS SET INFORMATION:
    Name                   = (CC-PVDZ AUX)
    Blend                  = CC-PVDZ-JKFIT
    Total number of shells = 42
    Number of primitives   = 42
    Number of AO           = 131
    Number of SO           = 116
    Maximum AM             = 3
    Spherical Harmonics    = TRUE

  -Contraction Scheme:
    Atom   Type   All Primitives // Shells:
   ------ ------ --------------------------
       1     O     10s 7p 5d 2f // 10s 7p 5d 2f 
       2     H     4s 3p 2d // 4s 3p 2d 
       3     H     4s 3p 2d // 4s 3p 2d 

  Minimum eigenvalue in the overlap matrix is 3.1002917239E-02.
  Reciprocal condition number of the overlap matrix is 9.7807388068E-03.
    Using symmetric orthogonalization.

  ==> Pre-Iterations <==

  SCF Guess: Superposition of Atomic Densities via on-the-fly atomic UHF (no occupation information).

   -------------------------
    Irrep   Nso     Nmo    
   -------------------------
     A1        11      11 
     A2         2       2 
     B1         4       4 
     B2         7       7 
   -------------------------
    Total      24      24
   -------------------------

  ==> Iterations <==

                           Total Energy        Delta E     RMS |[F,P]|

   @DF-RHF iter SAD:   -75.53388504912766   -7.55339e+01   0.00000e+00 
   @DF-RHF iter   1:   -75.95287184966972   -4.18987e-01   3.04408e-02 DIIS/ADIIS
   @DF-RHF iter   2:   -76.00667538063190   -5.38035e-02   1.73042e-02 DIIS/ADIIS
   @DF-RHF iter   3:   -76.02543579846895   -1.87604e-02   2.27889e-03 DIIS/ADIIS
   @DF-RHF iter   4:   -76.02598557762511   -5.49779e-04   3.61371e-04 DIIS/ADIIS
   @DF-RHF iter   5:   -76.02600354250075   -1.79649e-05   6.49285e-05 DIIS
   @DF-RHF iter   6:   -76.02600435169452   -8.09194e-07   9.50747e-06 DIIS
   @DF-RHF iter   7:   -76.02600436957043   -1.78759e-08   8.87331e-07 DIIS

  DF guess converged.

  ==> DirectJK: Integral-Direct J/K Matrices <==

    J tasked:                  Yes
    K tasked:                  Yes
    wK tasked:                  No
    Integrals threads:           4
    Screening Type:           CSAM
    Screening Cutoff:        1E-08
    Incremental Fock:           No

   @RHF iter   8:   -76.02602762900571   -7.60260e+01   1.27400e-05 DIIS
   @RHF iter   9:   -76.02602764332238   -1.43167e-08   2.15704e-06 DIIS
   @RHF iter  10:   -76.02602764379731   -4.74927e-10   4.98670e-07 DIIS
  Energy and wave function converged.


  ==> Post-Iterations <==

    Orbital Energies [Eh]
    ---------------------

    Doubly Occupied:                                                      

       1A1   -20.551519     2A1    -1.347259     1B2    -0.693221  
       3A1    -0.580840     1B1    -0.496004  

    Virtual:                                                              

       4A1     0.185851     2B2     0.258653     3B2     0.778183  
       5A1     0.890610     6A1     1.170028     2B1     1.198967  
       4B2     1.258713     7A1     1.386218     1A2     1.500391  
       3B1     1.641616     8A1     1.853318     5B2     1.983523  
       6B2     2.465729     9A1     2.531588     4B1     3.325807  
       2A2     3.327084    10A1     3.532412    11A1     3.843501  
       7B2     4.191650  

    Final Occupation by Irrep:
             A1    A2    B1    B2 
    DOCC [     3,    0,    1,    1 ]
    NA   [     3,    0,    1,    1 ]
    NB   [     3,    0,    1,    1 ]

  @RHF Final Energy:   -76.02602764379731

   => Energetics <=

    Nuclear Repulsion Energy =              9.3154602711577219
    One-Electron Energy =                -123.3452884903901321
    Two-Electron Energy =                  38.0038005754351076
    Total Energy =                        -76.0260276437973062

Computation Completed


Properties will be evaluated at   0.000000,   0.000000,   0.000000 [a0]

Properties computed using the SCF density matrix


 Multipole Moments:

 ------------------------------------------------------------------------------------
     Multipole            Electronic (a.u.)      Nuclear  (a.u.)        Total (a.u.)
 ------------------------------------------------------------------------------------

 L = 1.  Multiply by 2.5417464519 to convert [e a0] to [Debye]
 Dipole X            :          0.0000000            0.0000000            0.0000000
 Dipole Y            :          0.0000000            0.0000000            0.0000000
 Dipole Z            :         -0.1882575            1.0270648            0.8388073
 Magnitude           :                                                    0.8388073

 ------------------------------------------------------------------------------------

*** tstop() called on PC001.IRVING.UPEI.CA at Mon May  6 11:16:10 2024
Module time:
	user time   =       1.29 seconds =       0.02 minutes
	system time =       0.06 seconds =       0.00 minutes
	total time  =          0 seconds =       0.00 minutes
Total time:
	user time   =      19.69 seconds =       0.33 minutes
	system time =       1.02 seconds =       0.02 minutes
	total time  =          5 seconds =       0.08 minutes
Molecule: Setting geometry variable angle to 99.616731

Scratch directory: /tmp/
   => Libint2 <=

    Primary   basis highest AM E, G, H:  5, 4, 3
    Auxiliary basis highest AM E, G, H:  6, 5, 4
    Onebody   basis highest AM E, G, H:  6, 5, 4
    Solid Harmonics ordering:            Gaussian

*** tstart() called on PC001.IRVING.UPEI.CA
*** at Mon May  6 11:16:10 2024

   => Loading Basis Set <=

    Name: CC-PVDZ
    Role: ORBITAL
    Keyword: BASIS
    atoms 1   entry O          line   198 file /opt/anaconda3/envs/psi4fun/share/psi4/basis/cc-pvdz.gbs 
    atoms 2-3 entry H          line    22 file /opt/anaconda3/envs/psi4fun/share/psi4/basis/cc-pvdz.gbs 


         ---------------------------------------------------------
                                   SCF
               by Justin Turney, Rob Parrish, Andy Simmonett
                          and Daniel G. A. Smith
                              RHF Reference
                        4 Threads,    953 MiB Core
         ---------------------------------------------------------

  ==> Geometry <==

    Molecular point group: c2v
    Full point group: C2v

    Geometry (in Angstrom), charge = 0, multiplicity = 1:

       Center              X                  Y                   Z               Mass       
    ------------   -----------------  -----------------  -----------------  -----------------
         O            0.000000000000     0.000000000000    -0.068349841876    15.994914619570
         H            0.000000000000    -0.722916189757     0.542380795328     1.007825032230
         H            0.000000000000     0.722916189757     0.542380795328     1.007825032230

  Running in c2v symmetry.

  Rotational constants: A =     25.24802  B =     16.00315  C =      9.79482 [cm^-1]
  Rotational constants: A = 756916.63875  B = 479762.34738  C = 293641.36324 [MHz]
  Nuclear repulsion =    9.312727807638932

  Charge       = 0
  Multiplicity = 1
  Electrons    = 10
  Nalpha       = 5
  Nbeta        = 5

  ==> Algorithm <==

  SCF Algorithm Type is DIRECT.
  DIIS enabled.
  MOM disabled.
  Fractional occupation disabled.
  Guess Type is SAD.
  Energy threshold   = 1.00e-06
  Density threshold  = 1.00e-06
  Integral threshold = 1.00e-08

  ==> Primary Basis <==

  -AO BASIS SET INFORMATION:
    Name                   = CC-PVDZ
    Blend                  = CC-PVDZ
    Total number of shells = 12
    Number of primitives   = 32
    Number of AO           = 25
    Number of SO           = 24
    Maximum AM             = 2
    Spherical Harmonics    = TRUE

  -Contraction Scheme:
    Atom   Type   All Primitives // Shells:
   ------ ------ --------------------------
       1     O     17s 4p 1d // 3s 2p 1d 
       2     H     4s 1p // 2s 1p 
       3     H     4s 1p // 2s 1p 

   => Loading Basis Set <=

    Name: (CC-PVDZ AUX)
    Role: JKFIT
    Keyword: DF_BASIS_SCF
    atoms 1   entry O          line   221 file /opt/anaconda3/envs/psi4fun/share/psi4/basis/cc-pvdz-jkfit.gbs 
    atoms 2-3 entry H          line    51 file /opt/anaconda3/envs/psi4fun/share/psi4/basis/cc-pvdz-jkfit.gbs 

  Starting with a DF guess...

  ==> Integral Setup <==

  DFHelper Memory: AOs need 0.001 GiB; user supplied 0.698 GiB. 
  Using in-core AOs.

  ==> MemDFJK: Density-Fitted J/K Matrices <==

    J tasked:                   Yes
    K tasked:                   Yes
    wK tasked:                   No
    OpenMP threads:               4
    Memory [MiB]:               715
    Algorithm:                 Core
    Schwarz Cutoff:           1E-08
    Mask sparsity (%):       0.0000
    Fitting Condition:        1E-10

   => Auxiliary Basis Set <=

  -AO BASIS SET INFORMATION:
    Name                   = (CC-PVDZ AUX)
    Blend                  = CC-PVDZ-JKFIT
    Total number of shells = 42
    Number of primitives   = 42
    Number of AO           = 131
    Number of SO           = 116
    Maximum AM             = 3
    Spherical Harmonics    = TRUE

  -Contraction Scheme:
    Atom   Type   All Primitives // Shells:
   ------ ------ --------------------------
       1     O     10s 7p 5d 2f // 10s 7p 5d 2f 
       2     H     4s 3p 2d // 4s 3p 2d 
       3     H     4s 3p 2d // 4s 3p 2d 

  Minimum eigenvalue in the overlap matrix is 3.1105675086E-02.
  Reciprocal condition number of the overlap matrix is 9.8169580904E-03.
    Using symmetric orthogonalization.

  ==> Pre-Iterations <==

  SCF Guess: Superposition of Atomic Densities via on-the-fly atomic UHF (no occupation information).

   -------------------------
    Irrep   Nso     Nmo    
   -------------------------
     A1        11      11 
     A2         2       2 
     B1         4       4 
     B2         7       7 
   -------------------------
    Total      24      24
   -------------------------

  ==> Iterations <==

                           Total Energy        Delta E     RMS |[F,P]|

   @DF-RHF iter SAD:   -75.53255127188075   -7.55326e+01   0.00000e+00 
   @DF-RHF iter   1:   -75.95336806355124   -4.20817e-01   3.04221e-02 DIIS/ADIIS
   @DF-RHF iter   2:   -76.00706888959139   -5.37008e-02   1.72677e-02 DIIS/ADIIS
   @DF-RHF iter   3:   -76.02575458258930   -1.86857e-02   2.27542e-03 DIIS/ADIIS
   @DF-RHF iter   4:   -76.02630377611044   -5.49194e-04   3.59950e-04 DIIS/ADIIS
   @DF-RHF iter   5:   -76.02632163610495   -1.78600e-05   6.46766e-05 DIIS
   @DF-RHF iter   6:   -76.02632244406531   -8.07960e-07   9.56083e-06 DIIS
   @DF-RHF iter   7:   -76.02632246249364   -1.84283e-08   9.50715e-07 DIIS

  DF guess converged.

  ==> DirectJK: Integral-Direct J/K Matrices <==

    J tasked:                  Yes
    K tasked:                  Yes
    wK tasked:                  No
    Integrals threads:           4
    Screening Type:           CSAM
    Screening Cutoff:        1E-08
    Incremental Fock:           No

   @RHF iter   8:   -76.02634524848885   -7.60263e+01   1.25898e-05 DIIS
   @RHF iter   9:   -76.02634526237105   -1.38822e-08   2.11747e-06 DIIS
   @RHF iter  10:   -76.02634526282858   -4.57533e-10   4.77584e-07 DIIS
  Energy and wave function converged.


  ==> Post-Iterations <==

    Orbital Energies [Eh]
    ---------------------

    Doubly Occupied:                                                      

       1A1   -20.551028     2A1    -1.346402     1B2    -0.695318  
       3A1    -0.578752     1B1    -0.495664  

    Virtual:                                                              

       4A1     0.186143     2B2     0.258510     3B2     0.781187  
       5A1     0.886497     6A1     1.168423     2B1     1.199197  
       4B2     1.257693     7A1     1.396137     1A2     1.496575  
       3B1     1.647820     8A1     1.855096     5B2     1.977265  
       6B2     2.467315     9A1     2.529094     4B1     3.320915  
       2A2     3.330868    10A1     3.534115    11A1     3.847175  
       7B2     4.186826  

    Final Occupation by Irrep:
             A1    A2    B1    B2 
    DOCC [     3,    0,    1,    1 ]
    NA   [     3,    0,    1,    1 ]
    NB   [     3,    0,    1,    1 ]

  @RHF Final Energy:   -76.02634526282858

   => Energetics <=

    Nuclear Repulsion Energy =              9.3127278076389324
    One-Electron Energy =                -123.3438188273690201
    Two-Electron Energy =                  38.0047457569014995
    Total Energy =                        -76.0263452628285847

Computation Completed


Properties will be evaluated at   0.000000,   0.000000,   0.000000 [a0]

Properties computed using the SCF density matrix


 Multipole Moments:

 ------------------------------------------------------------------------------------
     Multipole            Electronic (a.u.)      Nuclear  (a.u.)        Total (a.u.)
 ------------------------------------------------------------------------------------

 L = 1.  Multiply by 2.5417464519 to convert [e a0] to [Debye]
 Dipole X            :          0.0000000            0.0000000            0.0000000
 Dipole Y            :          0.0000000            0.0000000            0.0000000
 Dipole Z            :         -0.1833942            1.0166025            0.8332082
 Magnitude           :                                                    0.8332082

 ------------------------------------------------------------------------------------

*** tstop() called on PC001.IRVING.UPEI.CA at Mon May  6 11:16:10 2024
Module time:
	user time   =       1.28 seconds =       0.02 minutes
	system time =       0.06 seconds =       0.00 minutes
	total time  =          0 seconds =       0.00 minutes
Total time:
	user time   =      21.10 seconds =       0.35 minutes
	system time =       1.09 seconds =       0.02 minutes
	total time  =          5 seconds =       0.08 minutes
Molecule: Setting geometry variable angle to 100.616731

Scratch directory: /tmp/
   => Libint2 <=

    Primary   basis highest AM E, G, H:  5, 4, 3
    Auxiliary basis highest AM E, G, H:  6, 5, 4
    Onebody   basis highest AM E, G, H:  6, 5, 4
    Solid Harmonics ordering:            Gaussian

*** tstart() called on PC001.IRVING.UPEI.CA
*** at Mon May  6 11:16:10 2024

   => Loading Basis Set <=

    Name: CC-PVDZ
    Role: ORBITAL
    Keyword: BASIS
    atoms 1   entry O          line   198 file /opt/anaconda3/envs/psi4fun/share/psi4/basis/cc-pvdz.gbs 
    atoms 2-3 entry H          line    22 file /opt/anaconda3/envs/psi4fun/share/psi4/basis/cc-pvdz.gbs 


         ---------------------------------------------------------
                                   SCF
               by Justin Turney, Rob Parrish, Andy Simmonett
                          and Daniel G. A. Smith
                              RHF Reference
                        4 Threads,    953 MiB Core
         ---------------------------------------------------------

  ==> Geometry <==

    Molecular point group: c2v
    Full point group: C2v

    Geometry (in Angstrom), charge = 0, multiplicity = 1:

       Center              X                  Y                   Z               Mass       
    ------------   -----------------  -----------------  -----------------  -----------------
         O            0.000000000000     0.000000000000    -0.067641218325    15.994914619570
         H            0.000000000000    -0.728218225909     0.536757610335     1.007825032230
         H            0.000000000000     0.728218225909     0.536757610335     1.007825032230

  Running in c2v symmetry.

  Rotational constants: A =     25.77980  B =     15.77097  C =      9.78495 [cm^-1]
  Rotational constants: A = 772858.94512  B = 472801.63964  C = 293345.53966 [MHz]
  Nuclear repulsion =    9.310063009437505

  Charge       = 0
  Multiplicity = 1
  Electrons    = 10
  Nalpha       = 5
  Nbeta        = 5

  ==> Algorithm <==

  SCF Algorithm Type is DIRECT.
  DIIS enabled.
  MOM disabled.
  Fractional occupation disabled.
  Guess Type is SAD.
  Energy threshold   = 1.00e-06
  Density threshold  = 1.00e-06
  Integral threshold = 1.00e-08

  ==> Primary Basis <==

  -AO BASIS SET INFORMATION:
    Name                   = CC-PVDZ
    Blend                  = CC-PVDZ
    Total number of shells = 12
    Number of primitives   = 32
    Number of AO           = 25
    Number of SO           = 24
    Maximum AM             = 2
    Spherical Harmonics    = TRUE

  -Contraction Scheme:
    Atom   Type   All Primitives // Shells:
   ------ ------ --------------------------
       1     O     17s 4p 1d // 3s 2p 1d 
       2     H     4s 1p // 2s 1p 
       3     H     4s 1p // 2s 1p 

   => Loading Basis Set <=

    Name: (CC-PVDZ AUX)
    Role: JKFIT
    Keyword: DF_BASIS_SCF
    atoms 1   entry O          line   221 file /opt/anaconda3/envs/psi4fun/share/psi4/basis/cc-pvdz-jkfit.gbs 
    atoms 2-3 entry H          line    51 file /opt/anaconda3/envs/psi4fun/share/psi4/basis/cc-pvdz-jkfit.gbs 

  Starting with a DF guess...

  ==> Integral Setup <==

  DFHelper Memory: AOs need 0.001 GiB; user supplied 0.698 GiB. 
  Using in-core AOs.

  ==> MemDFJK: Density-Fitted J/K Matrices <==

    J tasked:                   Yes
    K tasked:                   Yes
    wK tasked:                   No
    OpenMP threads:               4
    Memory [MiB]:               715
    Algorithm:                 Core
    Schwarz Cutoff:           1E-08
    Mask sparsity (%):       0.0000
    Fitting Condition:        1E-10

   => Auxiliary Basis Set <=

  -AO BASIS SET INFORMATION:
    Name                   = (CC-PVDZ AUX)
    Blend                  = CC-PVDZ-JKFIT
    Total number of shells = 42
    Number of primitives   = 42
    Number of AO           = 131
    Number of SO           = 116
    Maximum AM             = 3
    Spherical Harmonics    = TRUE

  -Contraction Scheme:
    Atom   Type   All Primitives // Shells:
   ------ ------ --------------------------
       1     O     10s 7p 5d 2f // 10s 7p 5d 2f 
       2     H     4s 3p 2d // 4s 3p 2d 
       3     H     4s 3p 2d // 4s 3p 2d 

  Minimum eigenvalue in the overlap matrix is 3.1216350055E-02.
  Reciprocal condition number of the overlap matrix is 9.8557942318E-03.
    Using symmetric orthogonalization.

  ==> Pre-Iterations <==

  SCF Guess: Superposition of Atomic Densities via on-the-fly atomic UHF (no occupation information).

   -------------------------
    Irrep   Nso     Nmo    
   -------------------------
     A1        11      11 
     A2         2       2 
     B1         4       4 
     B2         7       7 
   -------------------------
    Total      24      24
   -------------------------

  ==> Iterations <==

                           Total Energy        Delta E     RMS |[F,P]|

   @DF-RHF iter SAD:   -75.53124843967191   -7.55312e+01   0.00000e+00 
   @DF-RHF iter   1:   -75.95380162593004   -4.22553e-01   3.04042e-02 DIIS/ADIIS
   @DF-RHF iter   2:   -76.00739940107830   -5.35978e-02   1.72323e-02 DIIS/ADIIS
   @DF-RHF iter   3:   -76.02601339952494   -1.86140e-02   2.27208e-03 DIIS/ADIIS
   @DF-RHF iter   4:   -76.02656207437175   -5.48675e-04   3.58620e-04 DIIS/ADIIS
   @DF-RHF iter   5:   -76.02657984885084   -1.77745e-05   6.45016e-05 DIIS
   @DF-RHF iter   6:   -76.02658065853439   -8.09684e-07   9.64329e-06 DIIS
   @DF-RHF iter   7:   -76.02658067770606   -1.91717e-08   1.02559e-06 DIIS
   @DF-RHF iter   8:   -76.02658067789739   -1.91321e-10   2.12298e-07 DIIS

  DF guess converged.

  ==> DirectJK: Integral-Direct J/K Matrices <==

    J tasked:                  Yes
    K tasked:                  Yes
    wK tasked:                  No
    Integrals threads:           4
    Screening Type:           CSAM
    Screening Cutoff:        1E-08
    Incremental Fock:           No

   @RHF iter   9:   -76.02660300604279   -7.60266e+01   1.24332e-05 DIIS
   @RHF iter  10:   -76.02660301948436   -1.34416e-08   2.07236e-06 DIIS
   @RHF iter  11:   -76.02660301992037   -4.36017e-10   4.44767e-07 DIIS
  Energy and wave function converged.


  ==> Post-Iterations <==

    Orbital Energies [Eh]
    ---------------------

    Doubly Occupied:                                                      

       1A1   -20.550529     2A1    -1.345552     1B2    -0.697388  
       3A1    -0.576669     1B1    -0.495320  

    Virtual:                                                              

       4A1     0.186421     2B2     0.258367     3B2     0.784287  
       5A1     0.882257     6A1     1.166972     2B1     1.199431  
       4B2     1.256673     7A1     1.405978     1A2     1.492850  
       3B1     1.653936     8A1     1.856964     5B2     1.971027  
       6B2     2.469181     9A1     2.526688     4B1     3.315905  
       2A2     3.334678    10A1     3.534603    11A1     3.851740  
       7B2     4.181770  

    Final Occupation by Irrep:
             A1    A2    B1    B2 
    DOCC [     3,    0,    1,    1 ]
    NA   [     3,    0,    1,    1 ]
    NB   [     3,    0,    1,    1 ]

  @RHF Final Energy:   -76.02660301992037

   => Energetics <=

    Nuclear Repulsion Energy =              9.3100630094375045
    One-Electron Energy =                -123.3424160357702988
    Two-Electron Energy =                  38.0057500064124270
    Total Energy =                        -76.0266030199203726

Computation Completed


Properties will be evaluated at   0.000000,   0.000000,   0.000000 [a0]

Properties computed using the SCF density matrix


 Multipole Moments:

 ------------------------------------------------------------------------------------
     Multipole            Electronic (a.u.)      Nuclear  (a.u.)        Total (a.u.)
 ------------------------------------------------------------------------------------

 L = 1.  Multiply by 2.5417464519 to convert [e a0] to [Debye]
 Dipole X            :          0.0000000            0.0000000            0.0000000
 Dipole Y            :          0.0000000            0.0000000            0.0000000
 Dipole Z            :         -0.1785127            1.0060627            0.8275500
 Magnitude           :                                                    0.8275500

 ------------------------------------------------------------------------------------

*** tstop() called on PC001.IRVING.UPEI.CA at Mon May  6 11:16:11 2024
Module time:
	user time   =       1.31 seconds =       0.02 minutes
	system time =       0.05 seconds =       0.00 minutes
	total time  =          1 seconds =       0.02 minutes
Total time:
	user time   =      22.53 seconds =       0.38 minutes
	system time =       1.14 seconds =       0.02 minutes
	total time  =          6 seconds =       0.10 minutes
Molecule: Setting geometry variable angle to 101.616731

Scratch directory: /tmp/
   => Libint2 <=

    Primary   basis highest AM E, G, H:  5, 4, 3
    Auxiliary basis highest AM E, G, H:  6, 5, 4
    Onebody   basis highest AM E, G, H:  6, 5, 4
    Solid Harmonics ordering:            Gaussian

*** tstart() called on PC001.IRVING.UPEI.CA
*** at Mon May  6 11:16:11 2024

   => Loading Basis Set <=

    Name: CC-PVDZ
    Role: ORBITAL
    Keyword: BASIS
    atoms 1   entry O          line   198 file /opt/anaconda3/envs/psi4fun/share/psi4/basis/cc-pvdz.gbs 
    atoms 2-3 entry H          line    22 file /opt/anaconda3/envs/psi4fun/share/psi4/basis/cc-pvdz.gbs 


         ---------------------------------------------------------
                                   SCF
               by Justin Turney, Rob Parrish, Andy Simmonett
                          and Daniel G. A. Smith
                              RHF Reference
                        4 Threads,    953 MiB Core
         ---------------------------------------------------------

  ==> Geometry <==

    Molecular point group: c2v
    Full point group: C2v

    Geometry (in Angstrom), charge = 0, multiplicity = 1:

       Center              X                  Y                   Z               Mass       
    ------------   -----------------  -----------------  -----------------  -----------------
         O            0.000000000000     0.000000000000    -0.066927443633    15.994914619570
         H            0.000000000000    -0.733464805424     0.531093549172     1.007825032230
         H            0.000000000000     0.733464805424     0.531093549172     1.007825032230

  Running in c2v symmetry.

  Rotational constants: A =     26.33261  B =     15.54615  C =      9.77514 [cm^-1]
  Rotational constants: A = 789431.78151  B = 466061.79510  C = 293051.27486 [MHz]
  Nuclear repulsion =    9.307464007683828

  Charge       = 0
  Multiplicity = 1
  Electrons    = 10
  Nalpha       = 5
  Nbeta        = 5

  ==> Algorithm <==

  SCF Algorithm Type is DIRECT.
  DIIS enabled.
  MOM disabled.
  Fractional occupation disabled.
  Guess Type is SAD.
  Energy threshold   = 1.00e-06
  Density threshold  = 1.00e-06
  Integral threshold = 1.00e-08

  ==> Primary Basis <==

  -AO BASIS SET INFORMATION:
    Name                   = CC-PVDZ
    Blend                  = CC-PVDZ
    Total number of shells = 12
    Number of primitives   = 32
    Number of AO           = 25
    Number of SO           = 24
    Maximum AM             = 2
    Spherical Harmonics    = TRUE

  -Contraction Scheme:
    Atom   Type   All Primitives // Shells:
   ------ ------ --------------------------
       1     O     17s 4p 1d // 3s 2p 1d 
       2     H     4s 1p // 2s 1p 
       3     H     4s 1p // 2s 1p 

   => Loading Basis Set <=

    Name: (CC-PVDZ AUX)
    Role: JKFIT
    Keyword: DF_BASIS_SCF
    atoms 1   entry O          line   221 file /opt/anaconda3/envs/psi4fun/share/psi4/basis/cc-pvdz-jkfit.gbs 
    atoms 2-3 entry H          line    51 file /opt/anaconda3/envs/psi4fun/share/psi4/basis/cc-pvdz-jkfit.gbs 

  Starting with a DF guess...

  ==> Integral Setup <==

  DFHelper Memory: AOs need 0.001 GiB; user supplied 0.698 GiB. 
  Using in-core AOs.

  ==> MemDFJK: Density-Fitted J/K Matrices <==

    J tasked:                   Yes
    K tasked:                   Yes
    wK tasked:                   No
    OpenMP threads:               4
    Memory [MiB]:               715
    Algorithm:                 Core
    Schwarz Cutoff:           1E-08
    Mask sparsity (%):       0.0000
    Fitting Condition:        1E-10

   => Auxiliary Basis Set <=

  -AO BASIS SET INFORMATION:
    Name                   = (CC-PVDZ AUX)
    Blend                  = CC-PVDZ-JKFIT
    Total number of shells = 42
    Number of primitives   = 42
    Number of AO           = 131
    Number of SO           = 116
    Maximum AM             = 3
    Spherical Harmonics    = TRUE

  -Contraction Scheme:
    Atom   Type   All Primitives // Shells:
   ------ ------ --------------------------
       1     O     10s 7p 5d 2f // 10s 7p 5d 2f 
       2     H     4s 3p 2d // 4s 3p 2d 
       3     H     4s 3p 2d // 4s 3p 2d 

  Minimum eigenvalue in the overlap matrix is 3.1334868383E-02.
  Reciprocal condition number of the overlap matrix is 9.8972235129E-03.
    Using symmetric orthogonalization.

  ==> Pre-Iterations <==

  SCF Guess: Superposition of Atomic Densities via on-the-fly atomic UHF (no occupation information).

   -------------------------
    Irrep   Nso     Nmo    
   -------------------------
     A1        11      11 
     A2         2       2 
     B1         4       4 
     B2         7       7 
   -------------------------
    Total      24      24
   -------------------------

  ==> Iterations <==

                           Total Energy        Delta E     RMS |[F,P]|

   @DF-RHF iter SAD:   -75.52997622879525   -7.55300e+01   0.00000e+00 
   @DF-RHF iter   1:   -75.95417354665020   -4.24197e-01   3.03871e-02 DIIS/ADIIS
   @DF-RHF iter   2:   -76.00766782837067   -5.34943e-02   1.71982e-02 DIIS/ADIIS
   @DF-RHF iter   3:   -76.02621312949312   -1.85453e-02   2.26887e-03 DIIS/ADIIS
   @DF-RHF iter   4:   -76.02676135304438   -5.48224e-04   3.57384e-04 DIIS/ADIIS
   @DF-RHF iter   5:   -76.02677906202437   -1.77090e-05   6.44056e-05 DIIS
   @DF-RHF iter   6:   -76.02677987645296   -8.14429e-07   9.75461e-06 DIIS
   @DF-RHF iter   7:   -76.02677989656334   -2.01104e-08   1.10872e-06 DIIS
   @DF-RHF iter   8:   -76.02677989680524   -2.41897e-10   2.42408e-07 DIIS

  DF guess converged.

  ==> DirectJK: Integral-Direct J/K Matrices <==

    J tasked:                  Yes
    K tasked:                  Yes
    wK tasked:                  No
    Integrals threads:           4
    Screening Type:           CSAM
    Screening Cutoff:        1E-08
    Incremental Fock:           No

   @RHF iter   9:   -76.02680178645285   -7.60268e+01   1.22919e-05 DIIS
   @RHF iter  10:   -76.02680179949198   -1.30391e-08   2.03465e-06 DIIS
   @RHF iter  11:   -76.02680179991114   -4.19163e-10   4.24540e-07 DIIS
  Energy and wave function converged.


  ==> Post-Iterations <==

    Orbital Energies [Eh]
    ---------------------

    Doubly Occupied:                                                      

       1A1   -20.550020     2A1    -1.344711     1B2    -0.699430  
       3A1    -0.574590     1B1    -0.494974  

    Virtual:                                                              

       4A1     0.186686     2B2     0.258224     3B2     0.787482  
       5A1     0.877904     6A1     1.165672     2B1     1.199668  
       4B2     1.255655     7A1     1.415706     1A2     1.489213  
       3B1     1.659964     8A1     1.858921     5B2     1.964819  
       6B2     2.471315     9A1     2.524373     4B1     3.310783  
       2A2     3.338512    10A1     3.533866    11A1     3.857206  
       7B2     4.176488  

    Final Occupation by Irrep:
             A1    A2    B1    B2 
    DOCC [     3,    0,    1,    1 ]
    NA   [     3,    0,    1,    1 ]
    NB   [     3,    0,    1,    1 ]

  @RHF Final Energy:   -76.02680179991114

   => Energetics <=

    Nuclear Repulsion Energy =              9.3074640076838282
    One-Electron Energy =                -123.3410819843875288
    Two-Electron Energy =                  38.0068161767925545
    Total Energy =                        -76.0268017999111407

Computation Completed


Properties will be evaluated at   0.000000,   0.000000,   0.000000 [a0]

Properties computed using the SCF density matrix


 Multipole Moments:

 ------------------------------------------------------------------------------------
     Multipole            Electronic (a.u.)      Nuclear  (a.u.)        Total (a.u.)
 ------------------------------------------------------------------------------------

 L = 1.  Multiply by 2.5417464519 to convert [e a0] to [Debye]
 Dipole X            :          0.0000000            0.0000000            0.0000000
 Dipole Y            :          0.0000000            0.0000000            0.0000000
 Dipole Z            :         -0.1736169            0.9954464            0.8218295
 Magnitude           :                                                    0.8218295

 ------------------------------------------------------------------------------------

*** tstop() called on PC001.IRVING.UPEI.CA at Mon May  6 11:16:11 2024
Module time:
	user time   =       1.31 seconds =       0.02 minutes
	system time =       0.06 seconds =       0.00 minutes
	total time  =          0 seconds =       0.00 minutes
Total time:
	user time   =      23.96 seconds =       0.40 minutes
	system time =       1.20 seconds =       0.02 minutes
	total time  =          6 seconds =       0.10 minutes
Molecule: Setting geometry variable angle to 102.616731

Scratch directory: /tmp/
   => Libint2 <=

    Primary   basis highest AM E, G, H:  5, 4, 3
    Auxiliary basis highest AM E, G, H:  6, 5, 4
    Onebody   basis highest AM E, G, H:  6, 5, 4
    Solid Harmonics ordering:            Gaussian

*** tstart() called on PC001.IRVING.UPEI.CA
*** at Mon May  6 11:16:11 2024

   => Loading Basis Set <=

    Name: CC-PVDZ
    Role: ORBITAL
    Keyword: BASIS
    atoms 1   entry O          line   198 file /opt/anaconda3/envs/psi4fun/share/psi4/basis/cc-pvdz.gbs 
    atoms 2-3 entry H          line    22 file /opt/anaconda3/envs/psi4fun/share/psi4/basis/cc-pvdz.gbs 


         ---------------------------------------------------------
                                   SCF
               by Justin Turney, Rob Parrish, Andy Simmonett
                          and Daniel G. A. Smith
                              RHF Reference
                        4 Threads,    953 MiB Core
         ---------------------------------------------------------

  ==> Geometry <==

    Molecular point group: c2v
    Full point group: C2v

    Geometry (in Angstrom), charge = 0, multiplicity = 1:

       Center              X                  Y                   Z               Mass       
    ------------   -----------------  -----------------  -----------------  -----------------
         O            0.000000000000     0.000000000000    -0.066208572158    15.994914619570
         H            0.000000000000    -0.738655528754     0.525389043179     1.007825032230
         H            0.000000000000     0.738655528754     0.525389043179     1.007825032230

  Running in c2v symmetry.

  Rotational constants: A =     26.90754  B =     15.32842  C =      9.76538 [cm^-1]
  Rotational constants: A = 806667.64199  B = 459534.53693  C = 292758.65062 [MHz]
  Nuclear repulsion =    9.304929008720697

  Charge       = 0
  Multiplicity = 1
  Electrons    = 10
  Nalpha       = 5
  Nbeta        = 5

  ==> Algorithm <==

  SCF Algorithm Type is DIRECT.
  DIIS enabled.
  MOM disabled.
  Fractional occupation disabled.
  Guess Type is SAD.
  Energy threshold   = 1.00e-06
  Density threshold  = 1.00e-06
  Integral threshold = 1.00e-08

  ==> Primary Basis <==

  -AO BASIS SET INFORMATION:
    Name                   = CC-PVDZ
    Blend                  = CC-PVDZ
    Total number of shells = 12
    Number of primitives   = 32
    Number of AO           = 25
    Number of SO           = 24
    Maximum AM             = 2
    Spherical Harmonics    = TRUE

  -Contraction Scheme:
    Atom   Type   All Primitives // Shells:
   ------ ------ --------------------------
       1     O     17s 4p 1d // 3s 2p 1d 
       2     H     4s 1p // 2s 1p 
       3     H     4s 1p // 2s 1p 

   => Loading Basis Set <=

    Name: (CC-PVDZ AUX)
    Role: JKFIT
    Keyword: DF_BASIS_SCF
    atoms 1   entry O          line   221 file /opt/anaconda3/envs/psi4fun/share/psi4/basis/cc-pvdz-jkfit.gbs 
    atoms 2-3 entry H          line    51 file /opt/anaconda3/envs/psi4fun/share/psi4/basis/cc-pvdz-jkfit.gbs 

  Starting with a DF guess...

  ==> Integral Setup <==

  DFHelper Memory: AOs need 0.001 GiB; user supplied 0.698 GiB. 
  Using in-core AOs.

  ==> MemDFJK: Density-Fitted J/K Matrices <==

    J tasked:                   Yes
    K tasked:                   Yes
    wK tasked:                   No
    OpenMP threads:               4
    Memory [MiB]:               715
    Algorithm:                 Core
    Schwarz Cutoff:           1E-08
    Mask sparsity (%):       0.0000
    Fitting Condition:        1E-10

   => Auxiliary Basis Set <=

  -AO BASIS SET INFORMATION:
    Name                   = (CC-PVDZ AUX)
    Blend                  = CC-PVDZ-JKFIT
    Total number of shells = 42
    Number of primitives   = 42
    Number of AO           = 131
    Number of SO           = 116
    Maximum AM             = 3
    Spherical Harmonics    = TRUE

  -Contraction Scheme:
    Atom   Type   All Primitives // Shells:
   ------ ------ --------------------------
       1     O     10s 7p 5d 2f // 10s 7p 5d 2f 
       2     H     4s 3p 2d // 4s 3p 2d 
       3     H     4s 3p 2d // 4s 3p 2d 

  Minimum eigenvalue in the overlap matrix is 3.1461112585E-02.
  Reciprocal condition number of the overlap matrix is 9.9412084133E-03.
    Using symmetric orthogonalization.

  ==> Pre-Iterations <==

  SCF Guess: Superposition of Atomic Densities via on-the-fly atomic UHF (no occupation information).

   -------------------------
    Irrep   Nso     Nmo    
   -------------------------
     A1        11      11 
     A2         2       2 
     B1         4       4 
     B2         7       7 
   -------------------------
    Total      24      24
   -------------------------

  ==> Iterations <==

                           Total Energy        Delta E     RMS |[F,P]|

   @DF-RHF iter SAD:   -75.52873428806919   -7.55287e+01   0.00000e+00 
   @DF-RHF iter   1:   -75.95448486909058   -4.25751e-01   3.03708e-02 DIIS/ADIIS
   @DF-RHF iter   2:   -76.00787511653090   -5.33902e-02   1.71652e-02 DIIS/ADIIS
   @DF-RHF iter   3:   -76.02635467868978   -1.84796e-02   2.26578e-03 DIIS/ADIIS
   @DF-RHF iter   4:   -76.02690251807802   -5.47839e-04   3.56245e-04 DIIS/ADIIS
   @DF-RHF iter   5:   -76.02692018212029   -1.76640e-05   6.43898e-05 DIIS
   @DF-RHF iter   6:   -76.02692100437403   -8.22254e-07   9.89406e-06 DIIS
   @DF-RHF iter   7:   -76.02692102562165   -2.12476e-08   1.19726e-06 DIIS
   @DF-RHF iter   8:   -76.02692102592263   -3.00986e-10   2.69791e-07 DIIS

  DF guess converged.

  ==> DirectJK: Integral-Direct J/K Matrices <==

    J tasked:                  Yes
    K tasked:                  Yes
    wK tasked:                  No
    Integrals threads:           4
    Screening Type:           CSAM
    Screening Cutoff:        1E-08
    Incremental Fock:           No

   @RHF iter   9:   -76.02694249934015   -7.60269e+01   1.21558e-05 DIIS
   @RHF iter  10:   -76.02694251199529   -1.26551e-08   1.99820e-06 DIIS
   @RHF iter  11:   -76.02694251239856   -4.03276e-10   4.05087e-07 DIIS
  Energy and wave function converged.


  ==> Post-Iterations <==

    Orbital Energies [Eh]
    ---------------------

    Doubly Occupied:                                                      

       1A1   -20.549502     2A1    -1.343876     1B2    -0.701445  
       3A1    -0.572515     1B1    -0.494625  

    Virtual:                                                              

       4A1     0.186937     2B2     0.258082     3B2     0.790771  
       5A1     0.873451     6A1     1.164520     2B1     1.199909  
       4B2     1.254637     7A1     1.425291     1A2     1.485665  
       3B1     1.665902     8A1     1.860965     5B2     1.958652  
       6B2     2.473707     9A1     2.522150     4B1     3.305555  
       2A2     3.342369    10A1     3.531916    11A1     3.863566  
       7B2     4.170987  

    Final Occupation by Irrep:
             A1    A2    B1    B2 
    DOCC [     3,    0,    1,    1 ]
    NA   [     3,    0,    1,    1 ]
    NB   [     3,    0,    1,    1 ]

  @RHF Final Energy:   -76.02694251239856

   => Energetics <=

    Nuclear Repulsion Energy =              9.3049290087206966
    One-Electron Energy =                -123.3398161971154252
    Two-Electron Energy =                  38.0079446759961570
    Total Energy =                        -76.0269425123985769

Computation Completed


Properties will be evaluated at   0.000000,   0.000000,   0.000000 [a0]

Properties computed using the SCF density matrix


 Multipole Moments:

 ------------------------------------------------------------------------------------
     Multipole            Electronic (a.u.)      Nuclear  (a.u.)        Total (a.u.)
 ------------------------------------------------------------------------------------

 L = 1.  Multiply by 2.5417464519 to convert [e a0] to [Debye]
 Dipole X            :          0.0000000            0.0000000            0.0000000
 Dipole Y            :          0.0000000            0.0000000            0.0000000
 Dipole Z            :         -0.1687108            0.9847543            0.8160434
 Magnitude           :                                                    0.8160434

 ------------------------------------------------------------------------------------

*** tstop() called on PC001.IRVING.UPEI.CA at Mon May  6 11:16:11 2024
Module time:
[...]
       3A1    -0.552057     1B1    -0.490937  

    Virtual:                                                              

       4A1     0.188740     2B2     0.256708     5A1     0.825633  
       3B2     0.828456     6A1     1.160082     2B1     1.202529  
       4B2     1.244691     1A2     1.454779     7A1     1.508483  
       3B1     1.720150     8A1     1.884949     5B2     1.901239  
       9A1     2.504735     6B2     2.509588     4B1     3.249045  
       2A2     3.381828    10A1     3.458500    11A1     3.966213  
       7B2     4.105604  

    Final Occupation by Irrep:
             A1    A2    B1    B2 
    DOCC [     3,    0,    1,    1 ]
    NA   [     3,    0,    1,    1 ]
    NB   [     3,    0,    1,    1 ]

  @RHF Final Energy:   -76.02537411479129

   => Energetics <=

    Nuclear Repulsion Energy =              9.2827517410759626
    One-Electron Energy =                -123.3310264545009716
    Two-Electron Energy =                  38.0229005986337256
    Total Energy =                        -76.0253741147912763

Computation Completed


Properties will be evaluated at   0.000000,   0.000000,   0.000000 [a0]

Properties computed using the SCF density matrix


 Multipole Moments:

 ------------------------------------------------------------------------------------
     Multipole            Electronic (a.u.)      Nuclear  (a.u.)        Total (a.u.)
 ------------------------------------------------------------------------------------

 L = 1.  Multiply by 2.5417464519 to convert [e a0] to [Debye]
 Dipole X            :          0.0000000            0.0000000            0.0000000
 Dipole Y            :          0.0000000            0.0000000            0.0000000
 Dipole Z            :         -0.1199974            0.8738453            0.7538480
 Magnitude           :                                                    0.7538480

 ------------------------------------------------------------------------------------

*** tstop() called on PC001.IRVING.UPEI.CA at Mon May  6 11:16:15 2024
Module time:
	user time   =       1.30 seconds =       0.02 minutes
	system time =       0.06 seconds =       0.00 minutes
	total time  =          0 seconds =       0.00 minutes
Total time:
	user time   =      39.61 seconds =       0.66 minutes
	system time =       1.86 seconds =       0.03 minutes
	total time  =         10 seconds =       0.17 minutes
Molecule: Setting geometry variable angle to 113.616731

Scratch directory: /tmp/
   => Libint2 <=

    Primary   basis highest AM E, G, H:  5, 4, 3
    Auxiliary basis highest AM E, G, H:  6, 5, 4
    Onebody   basis highest AM E, G, H:  6, 5, 4
    Solid Harmonics ordering:            Gaussian

*** tstart() called on PC001.IRVING.UPEI.CA
*** at Mon May  6 11:16:15 2024

   => Loading Basis Set <=

    Name: CC-PVDZ
    Role: ORBITAL
    Keyword: BASIS
    atoms 1   entry O          line   198 file /opt/anaconda3/envs/psi4fun/share/psi4/basis/cc-pvdz.gbs 
    atoms 2-3 entry H          line    22 file /opt/anaconda3/envs/psi4fun/share/psi4/basis/cc-pvdz.gbs 


         ---------------------------------------------------------
                                   SCF
               by Justin Turney, Rob Parrish, Andy Simmonett
                          and Daniel G. A. Smith
                              RHF Reference
                        4 Threads,    953 MiB Core
         ---------------------------------------------------------

  ==> Geometry <==

    Molecular point group: c2v
    Full point group: C2v

    Geometry (in Angstrom), charge = 0, multiplicity = 1:

       Center              X                  Y                   Z               Mass       
    ------------   -----------------  -----------------  -----------------  -----------------
         O            0.000000000000     0.000000000000    -0.057980524300    15.994914619570
         H            0.000000000000    -0.791957023856     0.460096497963     1.007825032230
         H            0.000000000000     0.791957023856     0.460096497963     1.007825032230

  Running in c2v symmetry.

  Rotational constants: A =     35.08634  B =     13.33454  C =      9.66237 [cm^-1]
  Rotational constants: A = 1051862.09238  B = 399759.53636  C = 289670.45822 [MHz]
  Nuclear repulsion =    9.280820687994684

  Charge       = 0
  Multiplicity = 1
  Electrons    = 10
  Nalpha       = 5
  Nbeta        = 5

  ==> Algorithm <==

  SCF Algorithm Type is DIRECT.
  DIIS enabled.
  MOM disabled.
  Fractional occupation disabled.
  Guess Type is SAD.
  Energy threshold   = 1.00e-06
  Density threshold  = 1.00e-06
  Integral threshold = 1.00e-08

  ==> Primary Basis <==

  -AO BASIS SET INFORMATION:
    Name                   = CC-PVDZ
    Blend                  = CC-PVDZ
    Total number of shells = 12
    Number of primitives   = 32
    Number of AO           = 25
    Number of SO           = 24
    Maximum AM             = 2
    Spherical Harmonics    = TRUE

  -Contraction Scheme:
    Atom   Type   All Primitives // Shells:
   ------ ------ --------------------------
       1     O     17s 4p 1d // 3s 2p 1d 
       2     H     4s 1p // 2s 1p 
       3     H     4s 1p // 2s 1p 

   => Loading Basis Set <=

    Name: (CC-PVDZ AUX)
    Role: JKFIT
    Keyword: DF_BASIS_SCF
    atoms 1   entry O          line   221 file /opt/anaconda3/envs/psi4fun/share/psi4/basis/cc-pvdz-jkfit.gbs 
    atoms 2-3 entry H          line    51 file /opt/anaconda3/envs/psi4fun/share/psi4/basis/cc-pvdz-jkfit.gbs 

  Starting with a DF guess...

  ==> Integral Setup <==

  DFHelper Memory: AOs need 0.001 GiB; user supplied 0.698 GiB. 
  Using in-core AOs.

  ==> MemDFJK: Density-Fitted J/K Matrices <==

    J tasked:                   Yes
    K tasked:                   Yes
    wK tasked:                   No
    OpenMP threads:               4
    Memory [MiB]:               715
    Algorithm:                 Core
    Schwarz Cutoff:           1E-08
    Mask sparsity (%):       0.0000
    Fitting Condition:        1E-10

   => Auxiliary Basis Set <=

  -AO BASIS SET INFORMATION:
    Name                   = (CC-PVDZ AUX)
    Blend                  = CC-PVDZ-JKFIT
    Total number of shells = 42
    Number of primitives   = 42
    Number of AO           = 131
    Number of SO           = 116
    Maximum AM             = 3
    Spherical Harmonics    = TRUE

  -Contraction Scheme:
    Atom   Type   All Primitives // Shells:
   ------ ------ --------------------------
       1     O     10s 7p 5d 2f // 10s 7p 5d 2f 
       2     H     4s 3p 2d // 4s 3p 2d 
       3     H     4s 3p 2d // 4s 3p 2d 

  Minimum eigenvalue in the overlap matrix is 3.3284078230E-02.
  Reciprocal condition number of the overlap matrix is 1.0569593490E-02.
    Using symmetric orthogonalization.

  ==> Pre-Iterations <==

  SCF Guess: Superposition of Atomic Densities via on-the-fly atomic UHF (no occupation information).

   -------------------------
    Irrep   Nso     Nmo    
   -------------------------
     A1        11      11 
     A2         2       2 
     B1         4       4 
     B2         7       7 
   -------------------------
    Total      24      24
   -------------------------

  ==> Iterations <==

                           Total Energy        Delta E     RMS |[F,P]|

   @DF-RHF iter SAD:   -75.51695188657472   -7.55170e+01   0.00000e+00 
   @DF-RHF iter   1:   -75.95423867345951   -4.37287e-01   3.02390e-02 DIIS/ADIIS
   @DF-RHF iter   2:   -76.00642124186268   -5.21826e-02   1.68768e-02 DIIS/ADIIS
   @DF-RHF iter   3:   -76.02435748965055   -1.79362e-02   2.23723e-03 DIIS/ADIIS
   @DF-RHF iter   4:   -76.02490477772230   -5.47288e-04   3.50403e-04 DIIS/ADIIS
   @DF-RHF iter   5:   -76.02492335813288   -1.85804e-05   6.92994e-05 DIIS
   @DF-RHF iter   6:   -76.02492447859838   -1.12047e-06   1.27726e-05 DIIS
   @DF-RHF iter   7:   -76.02492452486904   -4.62707e-08   2.07244e-06 DIIS
   @DF-RHF iter   8:   -76.02492452601217   -1.14314e-09   3.93575e-07 DIIS

  DF guess converged.

  ==> DirectJK: Integral-Direct J/K Matrices <==

    J tasked:                  Yes
    K tasked:                  Yes
    wK tasked:                  No
    Integrals threads:           4
    Screening Type:           CSAM
    Screening Cutoff:        1E-08
    Incremental Fock:           No

   @RHF iter   9:   -76.02494331982174   -7.60249e+01   1.11230e-05 DIIS
   @RHF iter  10:   -76.02494332970265   -9.88091e-09   1.70625e-06 DIIS
   @RHF iter  11:   -76.02494332998518   -2.82526e-10   2.53345e-07 DIIS
  Energy and wave function converged.


  ==> Post-Iterations <==

    Orbital Energies [Eh]
    ---------------------

    Doubly Occupied:                                                      

       1A1   -20.543194     2A1    -1.335042     1B2    -0.721662  
       3A1    -0.550045     1B1    -0.490546  

    Virtual:                                                              

       4A1     0.188851     2B2     0.256577     5A1     0.820691  
       3B2     0.832661     6A1     1.160242     2B1     1.202813  
       4B2     1.243755     1A2     1.452124     7A1     1.515286  
       3B1     1.725057     8A1     1.887503     5B2     1.896071  
       9A1     2.503385     6B2     2.514180     4B1     3.243123  
       2A2     3.385824    10A1     3.447380    11A1     3.979172  
       7B2     4.098197  

    Final Occupation by Irrep:
             A1    A2    B1    B2 
    DOCC [     3,    0,    1,    1 ]
    NA   [     3,    0,    1,    1 ]
    NB   [     3,    0,    1,    1 ]

  @RHF Final Energy:   -76.02494332998518

   => Energetics <=

    Nuclear Repulsion Energy =              9.2808206879946837
    One-Electron Energy =                -123.3305477016805156
    Two-Electron Energy =                  38.0247836837006474
    Total Energy =                        -76.0249433299851916

Computation Completed


Properties will be evaluated at   0.000000,   0.000000,   0.000000 [a0]

Properties computed using the SCF density matrix


 Multipole Moments:

 ------------------------------------------------------------------------------------
     Multipole            Electronic (a.u.)      Nuclear  (a.u.)        Total (a.u.)
 ------------------------------------------------------------------------------------

 L = 1.  Multiply by 2.5417464519 to convert [e a0] to [Debye]
 Dipole X            :          0.0000000            0.0000000            0.0000000
 Dipole Y            :          0.0000000            0.0000000            0.0000000
 Dipole Z            :         -0.1152497            0.8623743            0.7471246
 Magnitude           :                                                    0.7471246

 ------------------------------------------------------------------------------------

*** tstop() called on PC001.IRVING.UPEI.CA at Mon May  6 11:16:16 2024
Module time:
	user time   =       1.30 seconds =       0.02 minutes
	system time =       0.06 seconds =       0.00 minutes
	total time  =          1 seconds =       0.02 minutes
Total time:
	user time   =      41.03 seconds =       0.68 minutes
	system time =       1.92 seconds =       0.03 minutes
	total time  =         11 seconds =       0.18 minutes
Molecule: Setting geometry variable angle to 114.616731

Scratch directory: /tmp/
   => Libint2 <=

    Primary   basis highest AM E, G, H:  5, 4, 3
    Auxiliary basis highest AM E, G, H:  6, 5, 4
    Onebody   basis highest AM E, G, H:  6, 5, 4
    Solid Harmonics ordering:            Gaussian

*** tstart() called on PC001.IRVING.UPEI.CA
*** at Mon May  6 11:16:16 2024

   => Loading Basis Set <=

    Name: CC-PVDZ
    Role: ORBITAL
    Keyword: BASIS
    atoms 1   entry O          line   198 file /opt/anaconda3/envs/psi4fun/share/psi4/basis/cc-pvdz.gbs 
    atoms 2-3 entry H          line    22 file /opt/anaconda3/envs/psi4fun/share/psi4/basis/cc-pvdz.gbs 


         ---------------------------------------------------------
                                   SCF
               by Justin Turney, Rob Parrish, Andy Simmonett
                          and Daniel G. A. Smith
                              RHF Reference
                        4 Threads,    953 MiB Core
         ---------------------------------------------------------

  ==> Geometry <==

    Molecular point group: c2v
    Full point group: C2v

    Geometry (in Angstrom), charge = 0, multiplicity = 1:

       Center              X                  Y                   Z               Mass       
    ------------   -----------------  -----------------  -----------------  -----------------
         O            0.000000000000     0.000000000000    -0.057204868292    15.994914619570
         H            0.000000000000    -0.796447886085     0.453941386103     1.007825032230
         H            0.000000000000     0.796447886085     0.453941386103     1.007825032230

  Running in c2v symmetry.

  Rotational constants: A =     36.04428  B =     13.18459  C =      9.65346 [cm^-1]
  Rotational constants: A = 1080580.43625  B = 395264.06684  C = 289403.53600 [MHz]
  Nuclear repulsion =    9.278936857207546

  Charge       = 0
  Multiplicity = 1
  Electrons    = 10
  Nalpha       = 5
  Nbeta        = 5

  ==> Algorithm <==

  SCF Algorithm Type is DIRECT.
  DIIS enabled.
  MOM disabled.
  Fractional occupation disabled.
  Guess Type is SAD.
  Energy threshold   = 1.00e-06
  Density threshold  = 1.00e-06
  Integral threshold = 1.00e-08

  ==> Primary Basis <==

  -AO BASIS SET INFORMATION:
    Name                   = CC-PVDZ
    Blend                  = CC-PVDZ
    Total number of shells = 12
    Number of primitives   = 32
    Number of AO           = 25
    Number of SO           = 24
    Maximum AM             = 2
    Spherical Harmonics    = TRUE

  -Contraction Scheme:
    Atom   Type   All Primitives // Shells:
   ------ ------ --------------------------
       1     O     17s 4p 1d // 3s 2p 1d 
       2     H     4s 1p // 2s 1p 
       3     H     4s 1p // 2s 1p 

   => Loading Basis Set <=

    Name: (CC-PVDZ AUX)
    Role: JKFIT
    Keyword: DF_BASIS_SCF
    atoms 1   entry O          line   221 file /opt/anaconda3/envs/psi4fun/share/psi4/basis/cc-pvdz-jkfit.gbs 
    atoms 2-3 entry H          line    51 file /opt/anaconda3/envs/psi4fun/share/psi4/basis/cc-pvdz-jkfit.gbs 

  Starting with a DF guess...

  ==> Integral Setup <==

  DFHelper Memory: AOs need 0.001 GiB; user supplied 0.698 GiB. 
  Using in-core AOs.

  ==> MemDFJK: Density-Fitted J/K Matrices <==

    J tasked:                   Yes
    K tasked:                   Yes
    wK tasked:                   No
    OpenMP threads:               4
    Memory [MiB]:               715
    Algorithm:                 Core
    Schwarz Cutoff:           1E-08
    Mask sparsity (%):       0.0000
    Fitting Condition:        1E-10

   => Auxiliary Basis Set <=

  -AO BASIS SET INFORMATION:
    Name                   = (CC-PVDZ AUX)
    Blend                  = CC-PVDZ-JKFIT
    Total number of shells = 42
    Number of primitives   = 42
    Number of AO           = 131
    Number of SO           = 116
    Maximum AM             = 3
    Spherical Harmonics    = TRUE

  -Contraction Scheme:
    Atom   Type   All Primitives // Shells:
   ------ ------ --------------------------
       1     O     10s 7p 5d 2f // 10s 7p 5d 2f 
       2     H     4s 3p 2d // 4s 3p 2d 
       3     H     4s 3p 2d // 4s 3p 2d 

  Minimum eigenvalue in the overlap matrix is 3.3479103547E-02.
  Reciprocal condition number of the overlap matrix is 1.0636603389E-02.
    Using symmetric orthogonalization.

  ==> Pre-Iterations <==

  SCF Guess: Superposition of Atomic Densities via on-the-fly atomic UHF (no occupation information).

   -------------------------
    Irrep   Nso     Nmo    
   -------------------------
     A1        11      11 
     A2         2       2 
     B1         4       4 
     B2         7       7 
   -------------------------
    Total      24      24
   -------------------------

  ==> Iterations <==

                           Total Energy        Delta E     RMS |[F,P]|

   @DF-RHF iter SAD:   -75.51603974596438   -7.55160e+01   0.00000e+00 
   @DF-RHF iter   1:   -75.95391490290682   -4.37875e-01   3.02308e-02 DIIS/ADIIS
   @DF-RHF iter   2:   -76.00597964067207   -5.20647e-02   1.68568e-02 DIIS/ADIIS
   @DF-RHF iter   3:   -76.02388116229457   -1.79015e-02   2.23491e-03 DIIS/ADIIS
   @DF-RHF iter   4:   -76.02442860243278   -5.47440e-04   3.50430e-04 DIIS/ADIIS
   @DF-RHF iter   5:   -76.02444738990899   -1.87875e-05   7.01399e-05 DIIS
   @DF-RHF iter   6:   -76.02444855677638   -1.16687e-06   1.30995e-05 DIIS
   @DF-RHF iter   7:   -76.02444860627452   -4.94981e-08   2.12483e-06 DIIS
   @DF-RHF iter   8:   -76.02444860747829   -1.20377e-09   3.94538e-07 DIIS

  DF guess converged.

  ==> DirectJK: Integral-Direct J/K Matrices <==

    J tasked:                  Yes
    K tasked:                  Yes
    wK tasked:                  No
    Integrals threads:           4
    Screening Type:           CSAM
    Screening Cutoff:        1E-08
    Incremental Fock:           No

   @RHF iter   9:   -76.02446733461085   -7.60245e+01   1.10731e-05 DIIS
   @RHF iter  10:   -76.02446734436761   -9.75676e-09   1.69008e-06 DIIS
   @RHF iter  11:   -76.02446734464370   -2.76088e-10   2.45090e-07 DIIS
  Energy and wave function converged.


  ==> Post-Iterations <==

    Orbital Energies [Eh]
    ---------------------

    Doubly Occupied:                                                      

       1A1   -20.542565     2A1    -1.334261     1B2    -0.723315  
       3A1    -0.548041     1B1    -0.490151  

    Virtual:                                                              

       4A1     0.188949     2B2     0.256448     5A1     0.815744  
       3B2     0.836936     6A1     1.160493     2B1     1.203101  
       4B2     1.242840     1A2     1.449542     7A1     1.521804  
       3B1     1.729871     8A1     1.890040     5B2     1.891025  
       9A1     2.502080     6B2     2.518925     4B1     3.237178  
       2A2     3.389820    10A1     3.435854    11A1     3.992431  
       7B2     4.090661  

    Final Occupation by Irrep:
             A1    A2    B1    B2 
    DOCC [     3,    0,    1,    1 ]
    NA   [     3,    0,    1,    1 ]
    NB   [     3,    0,    1,    1 ]

  @RHF Final Energy:   -76.02446734464370

   => Energetics <=

    Nuclear Repulsion Energy =              9.2789368572075457
    One-Electron Energy =                -123.3301441935177678
    Two-Electron Energy =                  38.0267399916665312
    Total Energy =                        -76.0244673446436963

Computation Completed


Properties will be evaluated at   0.000000,   0.000000,   0.000000 [a0]

Properties computed using the SCF density matrix


 Multipole Moments:

 ------------------------------------------------------------------------------------
     Multipole            Electronic (a.u.)      Nuclear  (a.u.)        Total (a.u.)
 ------------------------------------------------------------------------------------

 L = 1.  Multiply by 2.5417464519 to convert [e a0] to [Debye]
 Dipole X            :          0.0000000            0.0000000            0.0000000
 Dipole Y            :          0.0000000            0.0000000            0.0000000
 Dipole Z            :         -0.1105400            0.8508375            0.7402975
 Magnitude           :                                                    0.7402975

 ------------------------------------------------------------------------------------

*** tstop() called on PC001.IRVING.UPEI.CA at Mon May  6 11:16:16 2024
Module time:
	user time   =       1.29 seconds =       0.02 minutes
	system time =       0.06 seconds =       0.00 minutes
	total time  =          0 seconds =       0.00 minutes
Total time:
	user time   =      42.44 seconds =       0.71 minutes
	system time =       1.98 seconds =       0.03 minutes
	total time  =         11 seconds =       0.18 minutes

  Memory set to 953.674 MiB by Python driver.
