
    -----------------------------------------------------------------------
          Psi4: An Open-Source Ab Initio Electronic Structure Package
                               Psi4 1.9.1 release

                         Git: Rev {} zzzzzzz 


    D. G. A. Smith, L. A. Burns, A. C. Simmonett, R. M. Parrish,
    M. C. Schieber, R. Galvelis, P. Kraus, H. Kruse, R. Di Remigio,
    A. Alenaizan, A. M. James, S. Lehtola, J. P. Misiewicz, M. Scheurer,
    R. A. Shaw, J. B. Schriber, Y. Xie, Z. L. Glick, D. A. Sirianni,
    J. S. O'Brien, J. M. Waldrop, A. Kumar, E. G. Hohenstein,
    B. P. Pritchard, B. R. Brooks, H. F. Schaefer III, A. Yu. Sokolov,
    K. Patkowski, A. E. DePrince III, U. Bozkaya, R. A. King,
    F. A. Evangelista, J. M. Turney, T. D. Crawford, C. D. Sherrill,
    J. Chem. Phys. 152(18) 184108 (2020). https://doi.org/10.1063/5.0006002

                            Additional Code Authors
    E. T. Seidl, C. L. Janssen, E. F. Valeev, M. L. Leininger,
    J. F. Gonthier, R. M. Richard, H. R. McAlexander, M. Saitow, X. Wang,
    P. Verma, M. H. Lechner, A. Jiang, S. Behnle, A. G. Heide,
    M. F. Herbst, and D. L. Poole

             Previous Authors, Complete List of Code Contributors,
                       and Citations for Specific Modules
    https://github.com/psi4/psi4/blob/master/codemeta.json
    https://github.com/psi4/psi4/graphs/contributors
    http://psicode.org/psi4manual/master/introduction.html#citing-psifour

    -----------------------------------------------------------------------


    Psi4 started on: Monday, 06 May 2024 11:16AM

    Process ID: 65395
    Host:       PC001.IRVING.UPEI.CA
    PSIDATADIR: /opt/anaconda3/envs/psi4fun/share/psi4
    Memory:     953.7 MiB
    Threads:    4
      Threads set to 4 by Python driver.
Molecule: Setting geometry variable angle to 94.616731

Scratch directory: /tmp/
gradient() will perform analytic gradient computation.
   => Libint2 <=

    Primary   basis highest AM E, G, H:  5, 4, 3
    Auxiliary basis highest AM E, G, H:  6, 5, 4
    Onebody   basis highest AM E, G, H:  6, 5, 4
    Solid Harmonics ordering:            Gaussian

*** tstart() called on PC001.IRVING.UPEI.CA
*** at Mon May  6 11:16:17 2024

   => Loading Basis Set <=

    Name: CC-PVDZ
    Role: ORBITAL
    Keyword: BASIS
    atoms 1   entry O          line   198 file /opt/anaconda3/envs/psi4fun/share/psi4/basis/cc-pvdz.gbs 
    atoms 2-3 entry H          line    22 file /opt/anaconda3/envs/psi4fun/share/psi4/basis/cc-pvdz.gbs 


         ---------------------------------------------------------
                                   SCF
               by Justin Turney, Rob Parrish, Andy Simmonett
                          and Daniel G. A. Smith
                              RHF Reference
                        4 Threads,    953 MiB Core
         ---------------------------------------------------------

  ==> Geometry <==

    Molecular point group: c2v
    Full point group: C2v

    Geometry (in Angstrom), charge = 0, multiplicity = 1:

       Center              X                  Y                   Z               Mass       
    ------------   -----------------  -----------------  -----------------  -----------------
         O            0.000000000000     0.000000000000    -0.071813817724    15.994914619570
         H            0.000000000000    -0.695588437489     0.569868700553     1.007825032230
         H            0.000000000000     0.695588437489     0.569868700553     1.007825032230

  Running in c2v symmetry.

  Rotational constants: A =     22.87106  B =     17.28529  C =      9.84484 [cm^-1]
  Rotational constants: A = 685657.21508  B = 518199.93482  C = 295140.93445 [MHz]
  Nuclear repulsion =    9.327107008288635

  Charge       = 0
  Multiplicity = 1
  Electrons    = 10
  Nalpha       = 5
  Nbeta        = 5

  ==> Algorithm <==

  SCF Algorithm Type is DIRECT.
  DIIS enabled.
  MOM disabled.
  Fractional occupation disabled.
  Guess Type is SAD.
  Energy threshold   = 1.00e-08
  Density threshold  = 1.00e-08
  Integral threshold = 1.00e-08

  ==> Primary Basis <==

  -AO BASIS SET INFORMATION:
    Name                   = CC-PVDZ
    Blend                  = CC-PVDZ
    Total number of shells = 12
    Number of primitives   = 32
    Number of AO           = 25
    Number of SO           = 24
    Maximum AM             = 2
    Spherical Harmonics    = TRUE

  -Contraction Scheme:
    Atom   Type   All Primitives // Shells:
   ------ ------ --------------------------
       1     O     17s 4p 1d // 3s 2p 1d 
       2     H     4s 1p // 2s 1p 
       3     H     4s 1p // 2s 1p 

   => Loading Basis Set <=

    Name: (CC-PVDZ AUX)
    Role: JKFIT
    Keyword: DF_BASIS_SCF
    atoms 1   entry O          line   221 file /opt/anaconda3/envs/psi4fun/share/psi4/basis/cc-pvdz-jkfit.gbs 
    atoms 2-3 entry H          line    51 file /opt/anaconda3/envs/psi4fun/share/psi4/basis/cc-pvdz-jkfit.gbs 

  Starting with a DF guess...

  ==> Integral Setup <==

  DFHelper Memory: AOs need 0.001 GiB; user supplied 0.698 GiB. 
  Using in-core AOs.

  ==> MemDFJK: Density-Fitted J/K Matrices <==

    J tasked:                   Yes
    K tasked:                   Yes
    wK tasked:                   No
    OpenMP threads:               4
    Memory [MiB]:               715
    Algorithm:                 Core
    Schwarz Cutoff:           1E-08
    Mask sparsity (%):       0.0000
    Fitting Condition:        1E-10

   => Auxiliary Basis Set <=

  -AO BASIS SET INFORMATION:
    Name                   = (CC-PVDZ AUX)
    Blend                  = CC-PVDZ-JKFIT
    Total number of shells = 42
    Number of primitives   = 42
    Number of AO           = 131
    Number of SO           = 116
    Maximum AM             = 3
    Spherical Harmonics    = TRUE

  -Contraction Scheme:
    Atom   Type   All Primitives // Shells:
   ------ ------ --------------------------
       1     O     10s 7p 5d 2f // 10s 7p 5d 2f 
       2     H     4s 3p 2d // 4s 3p 2d 
       3     H     4s 3p 2d // 4s 3p 2d 

  Minimum eigenvalue in the overlap matrix is 3.0671065745E-02.
  Reciprocal condition number of the overlap matrix is 9.6620436844E-03.
    Using symmetric orthogonalization.

  ==> Pre-Iterations <==

  SCF Guess: Superposition of Atomic Densities via on-the-fly atomic UHF (no occupation information).

   -------------------------
    Irrep   Nso     Nmo    
   -------------------------
     A1        11      11 
     A2         2       2 
     B1         4       4 
     B2         7       7 
   -------------------------
    Total      24      24
   -------------------------

  ==> Iterations <==

                           Total Energy        Delta E     RMS |[F,P]|

   @DF-RHF iter SAD:   -75.53953490009597   -7.55395e+01   0.00000e+00 
   @DF-RHF iter   1:   -75.95024148894424   -4.10707e-01   3.05247e-02 DIIS/ADIIS
   @DF-RHF iter   2:   -76.00445420512293   -5.42127e-02   1.74623e-02 DIIS/ADIIS
   @DF-RHF iter   3:   -76.02354425122306   -1.90900e-02   2.29424e-03 DIIS/ADIIS
   @DF-RHF iter   4:   -76.02409701160002   -5.52760e-04   3.67841e-04 DIIS/ADIIS
   @DF-RHF iter   5:   -76.02411557283445   -1.85612e-05   6.66489e-05 DIIS
   @DF-RHF iter   6:   -76.02411641493549   -8.42101e-07   9.57340e-06 DIIS
   @DF-RHF iter   7:   -76.02411643238386   -1.74484e-08   8.05879e-07 DIIS
   @DF-RHF iter   8:   -76.02411643247564   -9.17737e-11   1.01632e-07 DIIS
   @DF-RHF iter   9:   -76.02411643247767   -2.03215e-12   2.24461e-08 DIIS
   @DF-RHF iter  10:   -76.02411643247785   -1.84741e-13   4.87133e-09 DIIS

  DF guess converged.

  ==> DirectJK: Integral-Direct J/K Matrices <==

    J tasked:                  Yes
    K tasked:                  Yes
    wK tasked:                  No
    Integrals threads:           4
    Screening Type:           CSAM
    Screening Cutoff:        1E-08
    Incremental Fock:           No

   @RHF iter  11:   -76.02414166186139   -7.60241e+01   1.33165e-05 DIIS
   @RHF iter  12:   -76.02414167794009   -1.60787e-08   2.30975e-06 DIIS
   @RHF iter  13:   -76.02414167848720   -5.47104e-10   5.73864e-07 DIIS
   @RHF iter  14:   -76.02414167851684   -2.96438e-11   1.74802e-07 DIIS
   @RHF iter  15:   -76.02414167851970   -2.85638e-12   5.96881e-08 DIIS
   @RHF iter  16:   -76.02414167852000   -2.98428e-13   6.62492e-09 DIIS
  Energy and wave function converged.


  ==> Post-Iterations <==

    Orbital Energies [Eh]
    ---------------------

    Doubly Occupied:                                                      

       1A1   -20.553399     2A1    -1.350786     1B2    -0.684577  
       3A1    -0.589235     1B1    -0.497339  

    Virtual:                                                              

       4A1     0.184551     2B2     0.259227     3B2     0.767163  
       5A1     0.905464     6A1     1.177992     2B1     1.198078  
       4B2     1.262804     7A1     1.346600     1A2     1.516567  
       3B1     1.615968     8A1     1.847084     5B2     2.008503  
       6B2     2.462427     9A1     2.542353     2A2     3.312239  
       4B1     3.344046    10A1     3.514402    11A1     3.836819  
       7B2     4.208501  

    Final Occupation by Irrep:
             A1    A2    B1    B2 
    DOCC [     3,    0,    1,    1 ]
    NA   [     3,    0,    1,    1 ]
    NB   [     3,    0,    1,    1 ]

  @RHF Final Energy:   -76.02414167852000

   => Energetics <=

    Nuclear Repulsion Energy =              9.3271070082886354
    One-Electron Energy =                -123.3518257915330310
    Two-Electron Energy =                  38.0005771047243996
    Total Energy =                        -76.0241416785199959

Computation Completed


Properties will be evaluated at   0.000000,   0.000000,   0.000000 [a0]

Properties computed using the SCF density matrix


 Multipole Moments:

 ------------------------------------------------------------------------------------
     Multipole            Electronic (a.u.)      Nuclear  (a.u.)        Total (a.u.)
 ------------------------------------------------------------------------------------

 L = 1.  Multiply by 2.5417464519 to convert [e a0] to [Debye]
 Dipole X            :          0.0000000            0.0000000            0.0000000
 Dipole Y            :          0.0000000            0.0000000            0.0000000
 Dipole Z            :         -0.2074472            1.0681240            0.8606767
 Magnitude           :                                                    0.8606767

 ------------------------------------------------------------------------------------

*** tstop() called on PC001.IRVING.UPEI.CA at Mon May  6 11:16:18 2024
Module time:
	user time   =       1.43 seconds =       0.02 minutes
	system time =       0.08 seconds =       0.00 minutes
	total time  =          1 seconds =       0.02 minutes
Total time:
	user time   =      45.39 seconds =       0.76 minutes
	system time =       2.21 seconds =       0.04 minutes
	total time  =         13 seconds =       0.22 minutes

*** tstart() called on PC001.IRVING.UPEI.CA
*** at Mon May  6 11:16:18 2024


         ------------------------------------------------------------
                                   SCF GRAD                          
                          Rob Parrish, Justin Turney,                
                       Andy Simmonett, and Alex Sokolov              
         ------------------------------------------------------------

  ==> Geometry <==

    Molecular point group: c2v
    Full point group: C2v

    Geometry (in Angstrom), charge = 0, multiplicity = 1:

       Center              X                  Y                   Z               Mass       
    ------------   -----------------  -----------------  -----------------  -----------------
         O            0.000000000000     0.000000000000    -0.071813817724    15.994914619570
         H            0.000000000000    -0.695588437489     0.569868700553     1.007825032230
         H            0.000000000000     0.695588437489     0.569868700553     1.007825032230

  Nuclear repulsion =    9.327107008288634

  ==> Basis Set <==

  -AO BASIS SET INFORMATION:
    Name                   = CC-PVDZ
    Blend                  = CC-PVDZ
    Total number of shells = 12
    Number of primitives   = 32
    Number of AO           = 25
    Number of SO           = 24
    Maximum AM             = 2
    Spherical Harmonics    = TRUE

  -Contraction Scheme:
    Atom   Type   All Primitives // Shells:
   ------ ------ --------------------------
       1     O     17s 4p 1d // 3s 2p 1d 
       2     H     4s 1p // 2s 1p 
       3     H     4s 1p // 2s 1p 

  ==> DirectJKGrad: Integral-Direct SCF Gradients <==

    Gradient:                    1
    J tasked:                  Yes
    K tasked:                  Yes
    wK tasked:                  No
    Integrals threads:           4
    Schwarz Cutoff:          1E-08


  -Nuclear Gradient:
     Atom            X                  Y                   Z
    ------   -----------------  -----------------  -----------------
       1        0.000000000000     0.000000000000     3.392122487204
       2        0.000000000000     1.983232197139    -1.696061243602
       3        0.000000000000    -1.983232197139    -1.696061243602


  -Core Hamiltonian Gradient:
     Atom            X                  Y                   Z
    ------   -----------------  -----------------  -----------------
       1        0.000000000000     0.000000000000    -8.702689527842
       2        0.000000000000    -4.632892900512     4.351344763921
       3        0.000000000000     4.632892900512     4.351344763921


  -Overlap Gradient:
     Atom            X                  Y                   Z
    ------   -----------------  -----------------  -----------------
       1       -0.000000000000     0.000000000000     0.559949878514
       2       -0.000000000000     0.277289782548    -0.279974939257
       3       -0.000000000000    -0.277289782548    -0.279974939257


  -Coulomb Gradient:
     Atom            X                  Y                   Z
    ------   -----------------  -----------------  -----------------
       1        0.000000000000     0.000000000000     5.488768732583
       2        0.000000000000     2.768680540874    -2.744384366291
       3        0.000000000000    -2.768680540874    -2.744384366291


  -Exchange Gradient:
     Atom            X                  Y                   Z
    ------   -----------------  -----------------  -----------------
       1       -0.000000000000     0.000000000000    -0.758359150839
       2       -0.000000000000    -0.379040152521     0.379179575420
       3       -0.000000000000     0.379040152521     0.379179575420


  -Total Gradient:
     Atom            X                  Y                   Z
    ------   -----------------  -----------------  -----------------
       1        0.000000000000     0.000000000000    -0.020207580381
       2       -0.000000000000     0.017269467529     0.010103790190
       3        0.000000000000    -0.017269467529     0.010103790190


*** tstop() called on PC001.IRVING.UPEI.CA at Mon May  6 11:16:18 2024
Module time:
	user time   =       0.20 seconds =       0.00 minutes
	system time =       0.02 seconds =       0.00 minutes
	total time  =          0 seconds =       0.00 minutes
Total time:
	user time   =      45.60 seconds =       0.76 minutes
	system time =       2.23 seconds =       0.04 minutes
	total time  =         13 seconds =       0.22 minutes
hessian() using ref_gradient to assess stationary point.

  Based on options and gradient (rms=1.16E-02), recommend projecting translations and not projecting rotations.
hessian() will perform analytic frequency computation.
   => Libint2 <=

    Primary   basis highest AM E, G, H:  5, 4, 3
    Auxiliary basis highest AM E, G, H:  6, 5, 4
    Onebody   basis highest AM E, G, H:  6, 5, 4
    Solid Harmonics ordering:            Gaussian

*** tstart() called on PC001.IRVING.UPEI.CA
*** at Mon May  6 11:16:18 2024

   => Loading Basis Set <=

    Name: CC-PVDZ
    Role: ORBITAL
    Keyword: BASIS
    atoms 1   entry O          line   198 file /opt/anaconda3/envs/psi4fun/share/psi4/basis/cc-pvdz.gbs 
    atoms 2-3 entry H          line    22 file /opt/anaconda3/envs/psi4fun/share/psi4/basis/cc-pvdz.gbs 


         ---------------------------------------------------------
                                   SCF
               by Justin Turney, Rob Parrish, Andy Simmonett
                          and Daniel G. A. Smith
                              RHF Reference
                        4 Threads,    953 MiB Core
         ---------------------------------------------------------

  ==> Geometry <==

    Molecular point group: c2v
    Full point group: C2v

    Geometry (in Angstrom), charge = 0, multiplicity = 1:

       Center              X                  Y                   Z               Mass       
    ------------   -----------------  -----------------  -----------------  -----------------
         O            0.000000000000     0.000000000000    -0.071813817724    15.994914619570
         H            0.000000000000    -0.695588437489     0.569868700553     1.007825032230
         H            0.000000000000     0.695588437489     0.569868700553     1.007825032230

  Running in c2v symmetry.

  Rotational constants: A =     22.87106  B =     17.28529  C =      9.84484 [cm^-1]
  Rotational constants: A = 685657.21508  B = 518199.93482  C = 295140.93445 [MHz]
  Nuclear repulsion =    9.327107008288634

  Charge       = 0
  Multiplicity = 1
  Electrons    = 10
  Nalpha       = 5
  Nbeta        = 5

  ==> Algorithm <==

  SCF Algorithm Type is DIRECT.
  DIIS enabled.
  MOM disabled.
  Fractional occupation disabled.
  Guess Type is SAD.
  Energy threshold   = 1.00e-08
  Density threshold  = 1.00e-08
  Integral threshold = 1.00e-08

  ==> Primary Basis <==

  -AO BASIS SET INFORMATION:
    Name                   = CC-PVDZ
    Blend                  = CC-PVDZ
    Total number of shells = 12
    Number of primitives   = 32
    Number of AO           = 25
    Number of SO           = 24
    Maximum AM             = 2
    Spherical Harmonics    = TRUE

  -Contraction Scheme:
    Atom   Type   All Primitives // Shells:
   ------ ------ --------------------------
       1     O     17s 4p 1d // 3s 2p 1d 
       2     H     4s 1p // 2s 1p 
       3     H     4s 1p // 2s 1p 

   => Loading Basis Set <=

    Name: (CC-PVDZ AUX)
    Role: JKFIT
    Keyword: DF_BASIS_SCF
    atoms 1   entry O          line   221 file /opt/anaconda3/envs/psi4fun/share/psi4/basis/cc-pvdz-jkfit.gbs 
    atoms 2-3 entry H          line    51 file /opt/anaconda3/envs/psi4fun/share/psi4/basis/cc-pvdz-jkfit.gbs 

  Starting with a DF guess...

  ==> Integral Setup <==

  DFHelper Memory: AOs need 0.001 GiB; user supplied 0.698 GiB. 
  Using in-core AOs.

  ==> MemDFJK: Density-Fitted J/K Matrices <==

    J tasked:                   Yes
    K tasked:                   Yes
    wK tasked:                   No
    OpenMP threads:               4
    Memory [MiB]:               715
    Algorithm:                 Core
    Schwarz Cutoff:           1E-08
    Mask sparsity (%):       0.0000
    Fitting Condition:        1E-10

   => Auxiliary Basis Set <=

  -AO BASIS SET INFORMATION:
    Name                   = (CC-PVDZ AUX)
    Blend                  = CC-PVDZ-JKFIT
    Total number of shells = 42
    Number of primitives   = 42
    Number of AO           = 131
    Number of SO           = 116
    Maximum AM             = 3
    Spherical Harmonics    = TRUE

  -Contraction Scheme:
    Atom   Type   All Primitives // Shells:
   ------ ------ --------------------------
       1     O     10s 7p 5d 2f // 10s 7p 5d 2f 
       2     H     4s 3p 2d // 4s 3p 2d 
       3     H     4s 3p 2d // 4s 3p 2d 

  Minimum eigenvalue in the overlap matrix is 3.0671065745E-02.
  Reciprocal condition number of the overlap matrix is 9.6620436844E-03.
    Using symmetric orthogonalization.

  ==> Pre-Iterations <==

  SCF Guess: Superposition of Atomic Densities via on-the-fly atomic UHF (no occupation information).

   -------------------------
    Irrep   Nso     Nmo    
   -------------------------
     A1        11      11 
     A2         2       2 
     B1         4       4 
     B2         7       7 
   -------------------------
    Total      24      24
   -------------------------

  ==> Iterations <==

                           Total Energy        Delta E     RMS |[F,P]|

   @DF-RHF iter SAD:   -75.53953490009596   -7.55395e+01   0.00000e+00 
   @DF-RHF iter   1:   -75.95024148894414   -4.10707e-01   3.05247e-02 DIIS/ADIIS
   @DF-RHF iter   2:   -76.00445420512295   -5.42127e-02   1.74623e-02 DIIS/ADIIS
   @DF-RHF iter   3:   -76.02354425122300   -1.90900e-02   2.29424e-03 DIIS/ADIIS
   @DF-RHF iter   4:   -76.02409701160002   -5.52760e-04   3.67841e-04 DIIS/ADIIS
   @DF-RHF iter   5:   -76.02411557283449   -1.85612e-05   6.66489e-05 DIIS
   @DF-RHF iter   6:   -76.02411641493551   -8.42101e-07   9.57340e-06 DIIS
   @DF-RHF iter   7:   -76.02411643238382   -1.74483e-08   8.05879e-07 DIIS
   @DF-RHF iter   8:   -76.02411643247562   -9.18021e-11   1.01632e-07 DIIS
   @DF-RHF iter   9:   -76.02411643247771   -2.08900e-12   2.24461e-08 DIIS
   @DF-RHF iter  10:   -76.02411643247788   -1.70530e-13   4.87133e-09 DIIS

  DF guess converged.

  ==> DirectJK: Integral-Direct J/K Matrices <==

    J tasked:                  Yes
    K tasked:                  Yes
    wK tasked:                  No
    Integrals threads:           4
    Screening Type:           CSAM
    Screening Cutoff:        1E-08
    Incremental Fock:           No

   @RHF iter  11:   -76.02414166186134   -7.60241e+01   1.33165e-05 DIIS
   @RHF iter  12:   -76.02414167794005   -1.60787e-08   2.30975e-06 DIIS
   @RHF iter  13:   -76.02414167848721   -5.47161e-10   5.73864e-07 DIIS
   @RHF iter  14:   -76.02414167851683   -2.96154e-11   1.74802e-07 DIIS
   @RHF iter  15:   -76.02414167851964   -2.81375e-12   5.96881e-08 DIIS
   @RHF iter  16:   -76.02414167852002   -3.83693e-13   6.62492e-09 DIIS
  Energy and wave function converged.


  ==> Post-Iterations <==

    Orbital Energies [Eh]
    ---------------------

    Doubly Occupied:                                                      

       1A1   -20.553399     2A1    -1.350786     1B2    -0.684577  
       3A1    -0.589235     1B1    -0.497339  

    Virtual:                                                              

       4A1     0.184551     2B2     0.259227     3B2     0.767163  
       5A1     0.905464     6A1     1.177992     2B1     1.198078  
       4B2     1.262804     7A1     1.346600     1A2     1.516567  
       3B1     1.615968     8A1     1.847084     5B2     2.008503  
       6B2     2.462427     9A1     2.542353     2A2     3.312239  
       4B1     3.344046    10A1     3.514402    11A1     3.836819  
       7B2     4.208501  

    Final Occupation by Irrep:
             A1    A2    B1    B2 
    DOCC [     3,    0,    1,    1 ]
    NA   [     3,    0,    1,    1 ]
    NB   [     3,    0,    1,    1 ]

  @RHF Final Energy:   -76.02414167852002

   => Energetics <=

    Nuclear Repulsion Energy =              9.3271070082886336
    One-Electron Energy =                -123.3518257915331162
    Two-Electron Energy =                  38.0005771047244565
    Total Energy =                        -76.0241416785200244

Computation Completed


Properties will be evaluated at   0.000000,   0.000000,   0.000000 [a0]

Properties computed using the SCF density matrix


 Multipole Moments:

 ------------------------------------------------------------------------------------
     Multipole            Electronic (a.u.)      Nuclear  (a.u.)        Total (a.u.)
 ------------------------------------------------------------------------------------

 L = 1.  Multiply by 2.5417464519 to convert [e a0] to [Debye]
 Dipole X            :          0.0000000            0.0000000            0.0000000
 Dipole Y            :          0.0000000            0.0000000            0.0000000
 Dipole Z            :         -0.2074472            1.0681240            0.8606767
 Magnitude           :                                                    0.8606767

 ------------------------------------------------------------------------------------

*** tstop() called on PC001.IRVING.UPEI.CA at Mon May  6 11:16:18 2024
Module time:
	user time   =       1.52 seconds =       0.03 minutes
	system time =       0.07 seconds =       0.00 minutes
	total time  =          0 seconds =       0.00 minutes
Total time:
	user time   =      47.24 seconds =       0.79 minutes
	system time =       2.30 seconds =       0.04 minutes
	total time  =         13 seconds =       0.22 minutes

*** tstart() called on PC001.IRVING.UPEI.CA
*** at Mon May  6 11:16:18 2024


         ------------------------------------------------------------
                                   SCF HESS                          
                          Rob Parrish, Justin Turney,                
                       Andy Simmonett, and Alex Sokolov              
         ------------------------------------------------------------

  ==> Geometry <==

    Molecular point group: c2v
    Full point group: C2v

    Geometry (in Angstrom), charge = 0, multiplicity = 1:

       Center              X                  Y                   Z               Mass       
    ------------   -----------------  -----------------  -----------------  -----------------
         O            0.000000000000     0.000000000000    -0.071813817724    15.994914619570
         H            0.000000000000    -0.695588437489     0.569868700553     1.007825032230
         H            0.000000000000     0.695588437489     0.569868700553     1.007825032230

  Nuclear repulsion =    9.327107008288634

  ==> Basis Set <==

  -AO BASIS SET INFORMATION:
    Name                   = CC-PVDZ
    Blend                  = CC-PVDZ
    Total number of shells = 12
    Number of primitives   = 32
    Number of AO           = 25
    Number of SO           = 24
    Maximum AM             = 2
    Spherical Harmonics    = TRUE

  -Contraction Scheme:
    Atom   Type   All Primitives // Shells:
   ------ ------ --------------------------
       1     O     17s 4p 1d // 3s 2p 1d 
       2     H     4s 1p // 2s 1p 
       3     H     4s 1p // 2s 1p 

  ==> DirectJKGrad: Integral-Direct SCF Gradients <==

    Gradient:                    2
    J tasked:                  Yes
    K tasked:                  Yes
    wK tasked:                  No
    Integrals threads:           4
    Schwarz Cutoff:          1E-08

  ## JHess (Symmetry 0) ##
  Irrep: 1 Size: 9 x 9

                 1                   2                   3                   4                   5

    1    -8.35844911163676     0.00000000000000     0.00000000000000     4.17922455581841     0.00000000000000
    2     0.00000000000000    -4.53392549487909    -0.00000000000000     0.00000000000000     2.26696274743957
    3     0.00000000000000    -0.00000000000000    -4.50023835356778     0.00000000000000     1.92093185442307
    4     4.17922455581841     0.00000000000000     0.00000000000000    -4.19999817562638     0.00000000000000
    5     0.00000000000000     2.26696274743957     1.92093185442307     0.00000000000000    -2.14891917860274
    6     0.00000000000000     1.82810553647368     2.25011917678392     0.00000000000000    -1.87451869544837
    7     4.17922455581841     0.00000000000000     0.00000000000000     0.02077361980796     0.00000000000000
    8     0.00000000000000     2.26696274743957    -1.92093185442307     0.00000000000000    -0.11804356883683
    9     0.00000000000000    -1.82810553647368     2.25011917678392     0.00000000000000    -0.04641315897469

                 6                   7                   8                   9

    1     0.00000000000000     4.17922455581841     0.00000000000000     0.00000000000000
    2     1.82810553647368     0.00000000000000     2.26696274743957    -1.82810553647368
    3     2.25011917678392     0.00000000000000    -1.92093185442307     2.25011917678392
    4     0.00000000000000     0.02077361980796     0.00000000000000     0.00000000000000
    5    -1.87451869544837     0.00000000000000    -0.11804356883683    -0.04641315897469
    6    -2.28054127428258     0.00000000000000     0.04641315897469     0.03042209749867
    7     0.00000000000000    -4.19999817562638     0.00000000000000     0.00000000000000
    8     0.04641315897469     0.00000000000000    -2.14891917860275     1.87451869544838
    9     0.03042209749867     0.00000000000000     1.87451869544838    -2.28054127428259



  ## KHess (Symmetry 0) ##
  Irrep: 1 Size: 9 x 9

                 1                   2                   3                   4                   5

    1    -1.03524122405493     0.00000000000000     0.00000000000000     0.51762061202748     0.00000000000000
    2     0.00000000000000    -0.48606908684493    -0.00000000000000     0.00000000000000     0.24303454342248
    3     0.00000000000000    -0.00000000000000    -0.43377981308300     0.00000000000000     0.28396488788728
    4     0.51762061202748     0.00000000000000     0.00000000000000    -0.51399380933232     0.00000000000000
    5     0.00000000000000     0.24303454342248     0.28396488788728     0.00000000000000    -0.17952887604806
    6     0.00000000000000     0.33542464381609     0.21688990654152     0.00000000000000    -0.30969476585169
    7     0.51762061202748     0.00000000000000     0.00000000000000    -0.00362680269516     0.00000000000000
    8     0.00000000000000     0.24303454342248    -0.28396488788728     0.00000000000000    -0.06350566737442
    9     0.00000000000000    -0.33542464381609     0.21688990654152     0.00000000000000     0.02572987796440

                 6                   7                   8                   9

    1     0.00000000000000     0.51762061202748     0.00000000000000     0.00000000000000
    2     0.33542464381609     0.00000000000000     0.24303454342248    -0.33542464381609
    3     0.21688990654152     0.00000000000000    -0.28396488788728     0.21688990654152
    4     0.00000000000000    -0.00362680269516     0.00000000000000     0.00000000000000
    5    -0.30969476585169     0.00000000000000    -0.06350566737442     0.02572987796440
    6    -0.21168934251141     0.00000000000000    -0.02572987796440    -0.00520056403010
    7     0.00000000000000    -0.51399380933232     0.00000000000000     0.00000000000000
    8    -0.02572987796440     0.00000000000000    -0.17952887604805     0.30969476585169
    9    -0.00520056403010     0.00000000000000     0.30969476585169    -0.21168934251141



  ==> DirectJK: Integral-Direct J/K Matrices <==

    J tasked:                  Yes
    K tasked:                  Yes
    wK tasked:                  No
    Integrals threads:           4
    Screening Type:           CSAM
    Screening Cutoff:        1E-08
    Incremental Fock:           No


   ==> Coupled-Perturbed RHF Solver <==

    Maxiter             =         100
    Convergence         =   1.000E-06
    Number of equations =           9
   -----------------------------------------------------
     Iter   Residual RMS      Max RMS  Remain  Time [s]
   -----------------------------------------------------
    Guess      1.852e+00    1.916e+00       9         0
        1      4.088e-01    6.341e-01       9         0
        2      1.046e-01    1.442e-01       9         0
        3      3.018e-02    4.271e-02       9         0
        4      4.672e-03    8.114e-03       9         0
        5      6.687e-04    1.033e-03       9         0
        6      1.436e-04    2.152e-04       9         0
        7      2.710e-05    4.643e-05       9         0
        8      3.526e-06    6.701e-06       7         1
        9      8.228e-07    1.609e-06       4         1
       10      2.207e-07    2.378e-07       0         1
   -----------------------------------------------------

    Solver has converged.

Nuclear
  ## Nuclear Hessian (Symmetry 0) ##
  Irrep: 1 Size: 9 x 9

                 1                   2                   3                   4                   5

    1    -2.79738634745434     0.00000000000000     0.00000000000000     1.39869317372717     0.00000000000000
    2     0.00000000000000     1.73643560477315     0.00000000000000     0.00000000000000    -0.86821780238658
    3     0.00000000000000     0.00000000000000     1.06095074268119     0.00000000000000     2.09123249534515
    4     1.39869317372717     0.00000000000000     0.00000000000000    -1.45373037591953     0.00000000000000
    5     0.00000000000000    -0.86821780238658     2.09123249534515     0.00000000000000     0.97829220677130
    6     0.00000000000000     2.09123249534515    -0.53047537134060     0.00000000000000    -2.09123249534515
    7     1.39869317372717     0.00000000000000     0.00000000000000     0.05503720219236     0.00000000000000
    8     0.00000000000000    -0.86821780238658    -2.09123249534515     0.00000000000000    -0.11007440438472
    9     0.00000000000000    -2.09123249534515    -0.53047537134060     0.00000000000000     0.00000000000000

                 6                   7                   8                   9

    1     0.00000000000000     1.39869317372717     0.00000000000000     0.00000000000000
    2     2.09123249534515     0.00000000000000    -0.86821780238658    -2.09123249534515
    3    -0.53047537134060     0.00000000000000    -2.09123249534515    -0.53047537134060
    4     0.00000000000000     0.05503720219236     0.00000000000000     0.00000000000000
    5    -2.09123249534515     0.00000000000000    -0.11007440438472     0.00000000000000
    6     0.47543816914824     0.00000000000000     0.00000000000000     0.05503720219236
    7     0.00000000000000    -1.45373037591953     0.00000000000000     0.00000000000000
    8     0.00000000000000     0.00000000000000     0.97829220677130     2.09123249534515
    9     0.05503720219236     0.00000000000000     2.09123249534515     0.47543816914824



Kinetic
  ## Kinetic Hessian (Symmetry 0) ##
  Irrep: 1 Size: 9 x 9

                 1                   2                   3                   4                   5

    1    -1.51401455855001     0.00000000000000     0.00000000000000     0.75700727927500     0.00000000000000
    2     0.00000000000000    -0.26047299169449     0.00000000000000     0.00000000000000     0.13023649584726
    3     0.00000000000000     0.00000000000000    -0.37386314717317     0.00000000000000     0.57341428097539
    4     0.75700727927500     0.00000000000000     0.00000000000000    -0.75999458152652     0.00000000000000
    5     0.00000000000000     0.13023649584726     0.57341428097539     0.00000000000000    -0.11117273736072
    6     0.00000000000000     0.57341428097539     0.18693157358658     0.00000000000000    -0.57341428097539
    7     0.75700727927500     0.00000000000000     0.00000000000000     0.00298730225151     0.00000000000000
    8     0.00000000000000     0.13023649584726    -0.57341428097539     0.00000000000000    -0.01906375848654
    9     0.00000000000000    -0.57341428097539     0.18693157358658     0.00000000000000    -0.00000000000000

                 6                   7                   8                   9

    1     0.00000000000000     0.75700727927500     0.00000000000000     0.00000000000000
    2     0.57341428097539     0.00000000000000     0.13023649584726    -0.57341428097539
    3     0.18693157358658     0.00000000000000    -0.57341428097539     0.18693157358658
    4     0.00000000000000     0.00298730225151     0.00000000000000     0.00000000000000
    5    -0.57341428097539     0.00000000000000    -0.01906375848654    -0.00000000000000
    6    -0.18937472931922     0.00000000000000    -0.00000000000000     0.00244315573264
    7     0.00000000000000    -0.75999458152652     0.00000000000000     0.00000000000000
    8    -0.00000000000000     0.00000000000000    -0.11117273736072     0.57341428097539
    9     0.00244315573264     0.00000000000000     0.57341428097539    -0.18937472931922



Potential
  ## Potential Hessian (Symmetry 0) ##
  Irrep: 1 Size: 9 x 9

                 1                   2                   3                   4                   5

    1    12.41327704592007     0.00000000000000     0.00000000000000    -6.20663852296106     0.00000000000000
    2     0.00000000000000     3.52347697419246     0.00000000000000     0.00000000000000    -1.76173848709575
    3     0.00000000000000     0.00000000000000     4.19340097849990     0.00000000000000    -4.26599887967849
    4    -6.20663852296106     0.00000000000000     0.00000000000000     6.28272715744790     0.00000000000000
    5     0.00000000000000    -1.76173848709575    -4.26599887967849     0.00000000000000     1.52344745649621
    6     0.00000000000000    -4.22886307744200    -2.09670048924982     0.00000000000000     4.24743097856024
    7    -6.20663852296106     0.00000000000000     0.00000000000000    -0.07608863448683     0.00000000000000
    8     0.00000000000000    -1.76173848709575     4.26599887967849     0.00000000000000     0.23829103059954
    9     0.00000000000000     4.22886307744200    -2.09670048924982     0.00000000000000     0.01856790111825

                 6                   7                   8                   9

    1     0.00000000000000    -6.20663852296106     0.00000000000000     0.00000000000000
    2    -4.22886307744200     0.00000000000000    -1.76173848709575     4.22886307744200
    3    -2.09670048924982     0.00000000000000     4.26599887967849    -2.09670048924982
    4     0.00000000000000    -0.07608863448683     0.00000000000000     0.00000000000000
    5     4.24743097856024     0.00000000000000     0.23829103059954     0.01856790111825
    6     2.16010721382901     0.00000000000000    -0.01856790111825    -0.06340672457920
    7     0.00000000000000     6.28272715744789     0.00000000000000     0.00000000000000
    8    -0.01856790111825     0.00000000000000     1.52344745649621    -4.24743097856024
    9    -0.06340672457920     0.00000000000000    -4.24743097856024     2.16010721382901



Overlap
  ## Overlap Hessian (Symmetry 0) ##
  Irrep: 1 Size: 9 x 9

                 1                   2                   3                   4                   5

    1    -0.83334469447015     0.00000000000000     0.00000000000000     0.41667234723507     0.00000000000000
    2     0.00000000000000    -0.57193761167371     0.00000000000000     0.00000000000000     0.28596880583680
    3     0.00000000000000     0.00000000000000    -0.55861301721173     0.00000000000000     0.13041924513819
    4     0.41667234723507     0.00000000000000     0.00000000000000    -0.42310245700835     0.00000000000000
    5     0.00000000000000     0.28596880583680     0.13041924513819     0.00000000000000    -0.26586257489007
    6     0.00000000000000     0.13041924513819     0.27930650860575     0.00000000000000    -0.13041924513819
    7     0.41667234723507     0.00000000000000     0.00000000000000     0.00643010977328     0.00000000000000
    8     0.00000000000000     0.28596880583680    -0.13041924513819     0.00000000000000    -0.02010623094673
    9     0.00000000000000    -0.13041924513819     0.27930650860575     0.00000000000000     0.00000000000000

                 6                   7                   8                   9

    1     0.00000000000000     0.41667234723507     0.00000000000000     0.00000000000000
    2     0.13041924513819     0.00000000000000     0.28596880583680    -0.13041924513819
    3     0.27930650860575     0.00000000000000    -0.13041924513819     0.27930650860575
    4     0.00000000000000     0.00643010977328     0.00000000000000     0.00000000000000
    5    -0.13041924513819     0.00000000000000    -0.02010623094673     0.00000000000000
    6    -0.28550667101645     0.00000000000000     0.00000000000000     0.00620016241070
    7     0.00000000000000    -0.42310245700835     0.00000000000000     0.00000000000000
    8     0.00000000000000     0.00000000000000    -0.26586257489007     0.13041924513819
    9     0.00620016241070     0.00000000000000     0.13041924513819    -0.28550667101645



Coulomb
  ## Coulomb Hessian (Symmetry 0) ##
  Irrep: 1 Size: 9 x 9

                 1                   2                   3                   4                   5

    1    -8.35844911163676     0.00000000000000     0.00000000000000     4.17922455581841     0.00000000000000
    2     0.00000000000000    -4.53392549487909    -0.00000000000000     0.00000000000000     2.26696274743957
    3     0.00000000000000    -0.00000000000000    -4.50023835356778     0.00000000000000     1.92093185442307
    4     4.17922455581841     0.00000000000000     0.00000000000000    -4.19999817562638     0.00000000000000
    5     0.00000000000000     2.26696274743957     1.92093185442307     0.00000000000000    -2.14891917860274
    6     0.00000000000000     1.82810553647368     2.25011917678392     0.00000000000000    -1.87451869544837
    7     4.17922455581841     0.00000000000000     0.00000000000000     0.02077361980796     0.00000000000000
    8     0.00000000000000     2.26696274743957    -1.92093185442307     0.00000000000000    -0.11804356883683
    9     0.00000000000000    -1.82810553647368     2.25011917678392     0.00000000000000    -0.04641315897469

                 6                   7                   8                   9

    1     0.00000000000000     4.17922455581841     0.00000000000000     0.00000000000000
    2     1.82810553647368     0.00000000000000     2.26696274743957    -1.82810553647368
    3     2.25011917678392     0.00000000000000    -1.92093185442307     2.25011917678392
    4     0.00000000000000     0.02077361980796     0.00000000000000     0.00000000000000
    5    -1.87451869544837     0.00000000000000    -0.11804356883683    -0.04641315897469
    6    -2.28054127428258     0.00000000000000     0.04641315897469     0.03042209749867
    7     0.00000000000000    -4.19999817562638     0.00000000000000     0.00000000000000
    8     0.04641315897469     0.00000000000000    -2.14891917860275     1.87451869544838
    9     0.03042209749867     0.00000000000000     1.87451869544838    -2.28054127428259



Exchange
  ## Exchange Hessian (Symmetry 0) ##
  Irrep: 1 Size: 9 x 9

                 1                   2                   3                   4                   5

    1     1.03524122405493    -0.00000000000000    -0.00000000000000    -0.51762061202748    -0.00000000000000
    2    -0.00000000000000     0.48606908684493     0.00000000000000    -0.00000000000000    -0.24303454342248
    3    -0.00000000000000     0.00000000000000     0.43377981308300    -0.00000000000000    -0.28396488788728
    4    -0.51762061202748    -0.00000000000000    -0.00000000000000     0.51399380933232    -0.00000000000000
    5    -0.00000000000000    -0.24303454342248    -0.28396488788728    -0.00000000000000     0.17952887604806
    6    -0.00000000000000    -0.33542464381609    -0.21688990654152    -0.00000000000000     0.30969476585169
    7    -0.51762061202748    -0.00000000000000    -0.00000000000000     0.00362680269516    -0.00000000000000
    8    -0.00000000000000    -0.24303454342248     0.28396488788728    -0.00000000000000     0.06350566737442
    9    -0.00000000000000     0.33542464381609    -0.21688990654152    -0.00000000000000    -0.02572987796440

                 6                   7                   8                   9

    1    -0.00000000000000    -0.51762061202748    -0.00000000000000    -0.00000000000000
    2    -0.33542464381609    -0.00000000000000    -0.24303454342248     0.33542464381609
    3    -0.21688990654152    -0.00000000000000     0.28396488788728    -0.21688990654152
    4    -0.00000000000000     0.00362680269516    -0.00000000000000    -0.00000000000000
    5     0.30969476585169    -0.00000000000000     0.06350566737442    -0.02572987796440
    6     0.21168934251141    -0.00000000000000     0.02572987796440     0.00520056403010
    7    -0.00000000000000     0.51399380933232    -0.00000000000000    -0.00000000000000
    8     0.02572987796440    -0.00000000000000     0.17952887604805    -0.30969476585169
    9     0.00520056403010    -0.00000000000000    -0.30969476585169     0.21168934251141



Response
  ## RHF Response (Symmetry 0) ##
  Irrep: 1 Size: 9 x 9

                 1                   2                   3                   4                   5

    1     0.07134105350842     0.00000000000000     0.00000000000000    -0.03567052675421     0.00000000000000
    2     0.00000000000000     0.30860044048095    -0.00000000000000     0.00000000000000    -0.15430022024047
    3     0.00000000000000    -0.00000000000000     0.35199289606607     0.00000000000000     0.07765495353469
    4    -0.03567052675421     0.00000000000000     0.00000000000000     0.03770180070145     0.00000000000000
    5     0.00000000000000    -0.15430022024047     0.07765495353469     0.00000000000000     0.24167957607881
    6     0.00000000000000     0.25088413842369    -0.17599644803304     0.00000000000000    -0.16426954597919
    7    -0.03567052675421     0.00000000000000     0.00000000000000    -0.00203127394724     0.00000000000000
    8     0.00000000000000    -0.15430022024047    -0.07765495353469     0.00000000000000    -0.08737935583833
    9     0.00000000000000    -0.25088413842369    -0.17599644803303     0.00000000000000     0.08661459244450

                 6                   7                   8                   9

    1     0.00000000000000    -0.03567052675421     0.00000000000000     0.00000000000000
    2     0.25088413842369     0.00000000000000    -0.15430022024047    -0.25088413842369
    3    -0.17599644803304     0.00000000000000    -0.07765495353469    -0.17599644803303
    4     0.00000000000000    -0.00203127394724     0.00000000000000     0.00000000000000
    5    -0.16426954597919     0.00000000000000    -0.08737935583833     0.08661459244450
    6     0.19635241672896     0.00000000000000    -0.08661459244450    -0.02035596869592
    7     0.00000000000000     0.03770180070145     0.00000000000000     0.00000000000000
    8    -0.08661459244450     0.00000000000000     0.24167957607881     0.16426954597919
    9    -0.02035596869592     0.00000000000000     0.16426954597919     0.19635241672896



  ## Total Hessian (Symmetry 0) ##
  Irrep: 1 Size: 9 x 9

                 1                   2                   3                   4                   5

    1     0.01666461137216     0.00000000000000     0.00000000000000    -0.00833230568708     0.00000000000000
    2     0.00000000000000     0.68824600804420     0.00000000000000     0.00000000000000    -0.34412300402164
    3     0.00000000000000     0.00000000000000     0.60740991237749     0.00000000000000     0.24368906185072
    4    -0.00833230568708     0.00000000000000     0.00000000000000    -0.00240282259911     0.00000000000000
    5     0.00000000000000    -0.34412300402164     0.24368906185072     0.00000000000000     0.39699362454084
    6     0.00000000000000     0.30976797509801    -0.30370495618872     0.00000000000000    -0.27672851847436
    7    -0.00833230568708     0.00000000000000     0.00000000000000     0.01073512828620     0.00000000000000
    8     0.00000000000000    -0.34412300402165    -0.24368906185072     0.00000000000000    -0.05287062051919
    9     0.00000000000000    -0.30976797509801    -0.30370495618871     0.00000000000000     0.03303945662365

                 6                   7                   8                   9

    1     0.00000000000000    -0.00833230568708     0.00000000000000     0.00000000000000
    2     0.30976797509801     0.00000000000000    -0.34412300402165    -0.30976797509801
    3    -0.30370495618872     0.00000000000000    -0.24368906185072    -0.30370495618871
    4     0.00000000000000     0.01073512828620     0.00000000000000     0.00000000000000
    5    -0.27672851847436     0.00000000000000    -0.05287062051919     0.03303945662365
    6     0.28816446759937     0.00000000000000    -0.03303945662365     0.01554048858934
    7     0.00000000000000    -0.00240282259912     0.00000000000000     0.00000000000000
    8    -0.03303945662365     0.00000000000000     0.39699362454084     0.27672851847436
    9     0.01554048858934     0.00000000000000     0.27672851847436     0.28816446759938




*** tstop() called on PC001.IRVING.UPEI.CA at Mon May  6 11:16:19 2024
Module time:
	user time   =       1.53 seconds =       0.03 minutes
	system time =       0.13 seconds =       0.00 minutes
	total time  =          1 seconds =       0.02 minutes
Total time:
	user time   =      48.78 seconds =       0.81 minutes
	system time =       2.43 seconds =       0.04 minutes
	total time  =         14 seconds =       0.23 minutes


  ==> Harmonic Vibrational Analysis <==

  non-mass-weighted Hessian:       Symmetric? True   Hermitian? True   Lin Dep Dim?  0 (0)
  projection of translations (True) and rotations (False) removed 3 degrees of freedom (6)
  total projector:                 Symmetric? True   Hermitian? True   Lin Dep Dim?  3 (3)
  mass-weighted Hessian:           Symmetric? True   Hermitian? True   Lin Dep Dim?  0 (0)
  pre-proj  low-frequency mode:    0.0000i [cm^-1]
  pre-proj  low-frequency mode:    0.0000i [cm^-1]
  pre-proj  low-frequency mode:    0.0000i [cm^-1]
  pre-proj  low-frequency mode:    0.0003  [cm^-1]
  pre-proj  low-frequency mode:    0.0012  [cm^-1]
  pre-proj  low-frequency mode:  495.9832  [cm^-1]
  pre-proj  all modes:['586.9154i' '308.5268i' '0.0017i' '0.0003' '0.0012' '495.9832'
 '1858.7172' '4160.1457' '4171.6873']
  projected mass-weighted Hessian: Symmetric? True   Hermitian? True   Lin Dep Dim?  3 (3)
  post-proj low-frequency mode:  586.9154i [cm^-1] (V)
  post-proj low-frequency mode:  308.5268i [cm^-1] (V)
  post-proj low-frequency mode:    0.0000i [cm^-1] (TR)
  post-proj low-frequency mode:    0.0000i [cm^-1] (TR)
  post-proj low-frequency mode:    0.0001  [cm^-1] (TR)
  post-proj low-frequency mode:  495.9832  [cm^-1] (V)
  post-proj  all modes:['586.9154i' '308.5268i' '0.0000i' '0.0000i' '0.0001' '495.9832'
 '1858.7172' '4160.1457' '4171.6873']

  Note that "Vibration"s include 3 un-projected rotation-like modes.
  Vibration                       1                   2                   6           
  Freq [cm^-1]                586.9154i           308.5268i            495.9832       
  Irrep                           A2                  B2                  B1          
  Reduced mass [u]              1.0078              1.0536              1.1259        
  Force const [mDyne/A]        -0.2045             -0.0591              0.1632        
  Turning point v=0 [a0]        0.0000              0.0000              0.4643        
  RMS dev v=0 [a0 u^1/2]        0.0000              0.0000              0.3484        
  IR activ [km/mol]             0.0000             116.1386            274.3617       
  Char temp [K]                 0.0000              0.0000             713.6095       
  ----------------------------------------------------------------------------------
      1   O                0.00  0.00  0.00   -0.00 -0.06 -0.00   -0.09 -0.00  0.00   
      2   H                0.71 -0.00 -0.00    0.00  0.44  0.55    0.70 -0.00  0.00   
      3   H               -0.71 -0.00  0.00   -0.00  0.44 -0.55    0.70 -0.00 -0.00   

  Vibration                       7                   8                   9           
  Freq [cm^-1]                1858.7172           4160.1457           4171.6873       
  Irrep                           A1                  A1                  B2          
  Reduced mass [u]              1.0757              1.0517              1.0738        
  Force const [mDyne/A]         2.1897             10.7241             11.0104        
  Turning point v=0 [a0]        0.2454              0.1659              0.1639        
  RMS dev v=0 [a0 u^1/2]        0.1800              0.1203              0.1201        
  IR activ [km/mol]            68.4100             21.5527             30.3584        
  Char temp [K]               2674.2802           5985.5234           6002.1293       
  ----------------------------------------------------------------------------------
      1   O                0.00  0.00 -0.07   -0.00 -0.00  0.05    0.00 -0.07 -0.00   
      2   H               -0.00  0.46  0.53   -0.00  0.56 -0.43    0.00  0.53 -0.47   
      3   H                0.00 -0.46  0.53   -0.00 -0.56 -0.43   -0.00  0.53  0.47   

  ==> Thermochemistry Components <==

  Entropy, S
    Electronic S                             0.000 [cal/(mol K)]        0.000 [J/(mol K)]       0.00000000 [mEh/K] (multiplicity = 1)
    Translational S                         34.608 [cal/(mol K)]      144.801 [J/(mol K)]       0.05515177 [mEh/K] (mol. weight = 18.0106 [u], P = 101325.00 [Pa])
    Rotational S                            10.426 [cal/(mol K)]       43.623 [J/(mol K)]       0.01661494 [mEh/K] (symmetry no. = 2)
    Vibrational S                            0.671 [cal/(mol K)]        2.806 [J/(mol K)]       0.00106893 [mEh/K]
  Total S                                   45.705 [cal/(mol K)]      191.230 [J/(mol K)]       0.07283564 [mEh/K]
  Correction S                               0.000 [cal/(mol K)]        0.000 [J/(mol K)]       0.00000000 [mEh/K]

  Constant volume heat capacity, Cv
    Electronic Cv                            0.000 [cal/(mol K)]        0.000 [J/(mol K)]       0.00000000 [mEh/K]
    Translational Cv                         2.981 [cal/(mol K)]       12.472 [J/(mol K)]       0.00475022 [mEh/K]
    Rotational Cv                            2.981 [cal/(mol K)]       12.472 [J/(mol K)]       0.00475022 [mEh/K]
    Vibrational Cv                           1.279 [cal/(mol K)]        5.352 [J/(mol K)]       0.00203865 [mEh/K]
  Total Cv                                   7.241 [cal/(mol K)]       30.296 [J/(mol K)]       0.01153908 [mEh/K]
  Correction Cv                              0.000 [cal/(mol K)]        0.000 [J/(mol K)]       0.00000000 [mEh/K]

  Constant pressure heat capacity, Cp
    Electronic Cp                            0.000 [cal/(mol K)]        0.000 [J/(mol K)]       0.00000000 [mEh/K]
    Translational Cp                         4.968 [cal/(mol K)]       20.786 [J/(mol K)]       0.00791703 [mEh/K]
    Rotational Cp                            2.981 [cal/(mol K)]       12.472 [J/(mol K)]       0.00475022 [mEh/K]
    Vibrational Cp                           1.279 [cal/(mol K)]        5.352 [J/(mol K)]       0.00203865 [mEh/K]
  Total Cp                                   9.228 [cal/(mol K)]       38.610 [J/(mol K)]       0.01470589 [mEh/K]
  Correction Cp                              0.000 [cal/(mol K)]        0.000 [J/(mol K)]       0.00000000 [mEh/K]

  ==> Thermochemistry Energy Analysis <==

  Raw electronic energy, E_e
  Total E_e, Electronic energy at well bottom                                           -76.02414168 [Eh]

  Zero-point vibrational energy, ZPVE = Sum_i omega_i / 2,  E_0 = E_e + ZPVE
    Vibrational ZPVE                        15.277 [kcal/mol]       63.920 [kJ/mol]       0.02434571 [Eh]        5343.267 [cm^-1]
  Correction ZPVE to E_e                    15.277 [kcal/mol]       63.920 [kJ/mol]       0.02434571 [Eh]        5343.267 [cm^-1]
  Total E_0, Enthalpy at 0 [K]                                                          -75.99979596 [Eh]
  *** Absolute enthalpy, not an enthalpy of formation ***

  Thermal (internal) energy, E (includes ZPVE and finite-temperature corrections)
    Electronic contrib to E beyond E_e       0.000 [kcal/mol]        0.000 [kJ/mol]       0.00000000 [Eh]
    Translational contrib to E               0.889 [kcal/mol]        3.718 [kJ/mol]       0.00141628 [Eh]
    Rotational contrib to E                  0.889 [kcal/mol]        3.718 [kJ/mol]       0.00141628 [Eh]
    Vibrational contrib to E                15.420 [kcal/mol]       64.519 [kJ/mol]       0.02457388 [Eh]
  Correction E                              17.198 [kcal/mol]       71.956 [kJ/mol]       0.02740644 [Eh]
  Total E, Thermal (internal) energy at  298.15 [K]                                     -75.99673524 [Eh]

  Enthalpy, H_trans = E_trans + k_B * T = E_trans + P * V
    Electronic contrib to H beyond E_e       0.000 [kcal/mol]        0.000 [kJ/mol]       0.00000000 [Eh]
    Translational contrib to H               1.481 [kcal/mol]        6.197 [kJ/mol]       0.00236046 [Eh]
    Rotational contrib to H                  0.889 [kcal/mol]        3.718 [kJ/mol]       0.00141628 [Eh]
    Vibrational contrib to H                15.420 [kcal/mol]       64.519 [kJ/mol]       0.02457388 [Eh]
  Correction H                              17.790 [kcal/mol]       74.435 [kJ/mol]       0.02835062 [Eh]
  Total H, Enthalpy at  298.15 [K]                                                      -75.99579106 [Eh]
  *** Absolute enthalpy, not an enthalpy of formation ***

  Gibbs free energy, G = H - T * S
    Electronic contrib to G beyond E_e       0.000 [kcal/mol]        0.000 [kJ/mol]       0.00000000 [Eh]
    Translational contrib to G              -8.837 [kcal/mol]      -36.975 [kJ/mol]      -0.01408304 [Eh]
    Rotational contrib to G                 -2.220 [kcal/mol]       -9.288 [kJ/mol]      -0.00353747 [Eh]
    Vibrational contrib to G                15.220 [kcal/mol]       63.682 [kJ/mol]       0.02425518 [Eh]
  Correction G                               4.163 [kcal/mol]       17.419 [kJ/mol]       0.00663468 [Eh]
  Total G, Gibbs energy at  298.15 [K]                                                  -76.01750700 [Eh]
  *** Absolute Gibbs energy, not a free energy of formation ***


    			-----------------------------------------

    			 OPTKING 3.0: for geometry optimizations 

    			     By R.A. King, Bethel University     

    			        with contributions from          

    			    A.V. Copan, J. Cayton, A. Heide      

    			-----------------------------------------

    
	                            ===> Fragment 1 <== 

	 Z (Atomic Numbers)          Masses                          Geom                  
	       8.000000            15.994915          0.00000000  0.00000000 -0.13570845   
	       1.000000             1.007825          0.00000000 -1.31447164  1.07689577   
	       1.000000             1.007825          0.00000000  1.31447164  1.07689577   

	 - Coordinate -           - BOHR/RAD -       - ANG/DEG -
	 R(1,2)           =         1.788364           0.946361
	 R(1,3)           =         1.788364           0.946361
	*B(2,1,3)         =         1.651373          94.616731


	        --- Internal Coordinate Step in ANG or DEG, aJ/ANG or AJ/DEG ---
	-------------------------------------------------------------------------------
	           Coordinate      Previous         Force          Change          New 
	           ----------      --------        ------          ------        ------
	               R(1,2)       0.94636        0.04813        0.00494       0.95130
	               R(1,3)       0.94636        0.04813        0.00494       0.95130
	            *B(2,1,3)      94.61673        0.00000        0.00000      94.61673
	-------------------------------------------------------------------------------

	                                 ==> Convergence Check <==                                  
    
	Measures of convergence in internal coordinates in au.
    
	Criteria marked as inactive (o), active & met (*), and active & unmet ( ).

	----------------------------------------------------------------------------------------------
	   Step    Total Energy     Delta E     Max Force     RMS Force      Max Disp      RMS Disp   
	----------------------------------------------------------------------------------------------
	  Convergence Criteria     1.00e-06 *    3.00e-04 *             o    1.20e-03 *             o
	----------------------------------------------------------------------------------------------
	     1     -76.02414168   -7.60e+01      5.84e-03      4.77e-03 o    9.34e-03      7.62e-03 o  ~
	----------------------------------------------------------------------------------------------

Next Geometry in Ang 
	Fragment 1 (Ang)

	    O   0.0000000000  -0.0000000000  -0.0740474707
	    H   0.0000000000  -0.6992203812   0.5709855270
	    H   0.0000000000   0.6992203812   0.5709855270


    Structure for next step:
    Molecular point group: c2v
    Full point group: C2v

    Geometry (in Angstrom), charge = 0, multiplicity = 1:

    O       
    H             1      length
    H             1      length      2       angle

    angle     =   94.6167313661
    length    =    0.9513026383


Scratch directory: /tmp/
gradient() will perform analytic gradient computation.
   => Libint2 <=

    Primary   basis highest AM E, G, H:  5, 4, 3
    Auxiliary basis highest AM E, G, H:  6, 5, 4
    Onebody   basis highest AM E, G, H:  6, 5, 4
    Solid Harmonics ordering:            Gaussian

*** tstart() called on PC001.IRVING.UPEI.CA
*** at Mon May  6 11:16:19 2024

   => Loading Basis Set <=

    Name: CC-PVDZ
    Role: ORBITAL
    Keyword: BASIS
    atoms 1   entry O          line   198 file /opt/anaconda3/envs/psi4fun/share/psi4/basis/cc-pvdz.gbs 
    atoms 2-3 entry H          line    22 file /opt/anaconda3/envs/psi4fun/share/psi4/basis/cc-pvdz.gbs 


         ---------------------------------------------------------
                                   SCF
               by Justin Turney, Rob Parrish, Andy Simmonett
                          and Daniel G. A. Smith
                              RHF Reference
                        4 Threads,    953 MiB Core
         ---------------------------------------------------------

  ==> Geometry <==

    Molecular point group: c2v
    Full point group: C2v

    Geometry (in Angstrom), charge = 0, multiplicity = 1:

       Center              X                  Y                   Z               Mass       
    ------------   -----------------  -----------------  -----------------  -----------------
         O            0.000000000000     0.000000000000    -0.072188786209    15.994914619570
         H            0.000000000000    -0.699220381185     0.572844211535     1.007825032230
         H            0.000000000000     0.699220381185     0.572844211535     1.007825032230

  Running in c2v symmetry.

  Rotational constants: A =     22.63408  B =     17.10619  C =      9.74283 [cm^-1]
  Rotational constants: A = 678552.72872  B = 512830.56907  C = 292082.81051 [MHz]
  Nuclear repulsion =    9.278659439521936

  Charge       = 0
  Multiplicity = 1
  Electrons    = 10
  Nalpha       = 5
  Nbeta        = 5

  ==> Algorithm <==

  SCF Algorithm Type is DIRECT.
  DIIS enabled.
  MOM disabled.
  Fractional occupation disabled.
  Guess Type is READ.
  Energy threshold   = 1.00e-08
  Density threshold  = 1.00e-08
  Integral threshold = 1.00e-08

  ==> Primary Basis <==

  -AO BASIS SET INFORMATION:
    Name                   = CC-PVDZ
    Blend                  = CC-PVDZ
    Total number of shells = 12
    Number of primitives   = 32
    Number of AO           = 25
    Number of SO           = 24
    Maximum AM             = 2
    Spherical Harmonics    = TRUE

  -Contraction Scheme:
    Atom   Type   All Primitives // Shells:
   ------ ------ --------------------------
       1     O     17s 4p 1d // 3s 2p 1d 
       2     H     4s 1p // 2s 1p 
       3     H     4s 1p // 2s 1p 

   => Loading Basis Set <=

    Name: (CC-PVDZ AUX)
    Role: JKFIT
    Keyword: DF_BASIS_SCF
    atoms 1   entry O          line   221 file /opt/anaconda3/envs/psi4fun/share/psi4/basis/cc-pvdz-jkfit.gbs 
    atoms 2-3 entry H          line    51 file /opt/anaconda3/envs/psi4fun/share/psi4/basis/cc-pvdz-jkfit.gbs 

   => Loading Basis Set <=

    Name: CC-PVDZ
    Role: ORBITAL
    Keyword: BASIS
    atoms 1   entry O          line   198 file /opt/anaconda3/envs/psi4fun/share/psi4/basis/cc-pvdz.gbs 
    atoms 2-3 entry H          line    22 file /opt/anaconda3/envs/psi4fun/share/psi4/basis/cc-pvdz.gbs 

  Reading orbitals from file /tmp/H2O_constrainst_3.default.65395.180.npy, no projection.

  Starting with a DF guess...

  ==> Integral Setup <==

  DFHelper Memory: AOs need 0.001 GiB; user supplied 0.698 GiB. 
  Using in-core AOs.

  ==> MemDFJK: Density-Fitted J/K Matrices <==

    J tasked:                   Yes
    K tasked:                   Yes
    wK tasked:                   No
    OpenMP threads:               4
    Memory [MiB]:               715
    Algorithm:                 Core
    Schwarz Cutoff:           1E-08
    Mask sparsity (%):       0.0000
    Fitting Condition:        1E-10

   => Auxiliary Basis Set <=

  -AO BASIS SET INFORMATION:
    Name                   = (CC-PVDZ AUX)
    Blend                  = CC-PVDZ-JKFIT
    Total number of shells = 42
    Number of primitives   = 42
    Number of AO           = 131
    Number of SO           = 116
    Maximum AM             = 3
    Spherical Harmonics    = TRUE

  -Contraction Scheme:
    Atom   Type   All Primitives // Shells:
   ------ ------ --------------------------
       1     O     10s 7p 5d 2f // 10s 7p 5d 2f 
       2     H     4s 3p 2d // 4s 3p 2d 
       3     H     4s 3p 2d // 4s 3p 2d 

  Minimum eigenvalue in the overlap matrix is 3.0986281854E-02.
  Reciprocal condition number of the overlap matrix is 9.7762373916E-03.
    Using symmetric orthogonalization.

  ==> Pre-Iterations <==

  SCF Guess: Orbitals guess was supplied from a previous computation.

   -------------------------------------------------------
    Irrep   Nso     Nmo     Nalpha   Nbeta   Ndocc  Nsocc
   -------------------------------------------------------
     A1        11      11       3       3       3       0
     A2         2       2       0       0       0       0
     B1         4       4       1       1       1       0
     B2         7       7       1       1       1       0
   -------------------------------------------------------
    Total      24      24       5       5       5       0
   -------------------------------------------------------

  ==> Iterations <==

                           Total Energy        Delta E     RMS |[F,P]|

   @DF-RHF iter   0:   -76.01683745020877   -7.60168e+01   1.38920e-03 
   @DF-RHF iter   1:   -76.02416778270788   -7.33033e-03   1.96811e-04 DIIS/ADIIS
   @DF-RHF iter   2:   -76.02417082778592   -3.04508e-06   9.95635e-05 DIIS
   @DF-RHF iter   3:   -76.02417146444928   -6.36663e-07   1.57721e-05 DIIS
   @DF-RHF iter   4:   -76.02417151212035   -4.76711e-08   5.14748e-06 DIIS
   @DF-RHF iter   5:   -76.02417151750240   -5.38205e-09   1.03826e-06 DIIS
   @DF-RHF iter   6:   -76.02417151780864   -3.06244e-10   1.79227e-07 DIIS
   @DF-RHF iter   7:   -76.02417151781604   -7.40386e-12   2.63543e-08 DIIS
   @DF-RHF iter   8:   -76.02417151781623   -1.84741e-13   3.78637e-09 DIIS

  DF guess converged.

  ==> DirectJK: Integral-Direct J/K Matrices <==

    J tasked:                  Yes
    K tasked:                  Yes
    wK tasked:                  No
    Integrals threads:           4
    Screening Type:           CSAM
    Screening Cutoff:        1E-08
    Incremental Fock:           No

   @RHF iter   9:   -76.02419682938786   -7.60242e+01   1.33743e-05 DIIS
   @RHF iter  10:   -76.02419684558535   -1.61975e-08   2.31441e-06 DIIS
   @RHF iter  11:   -76.02419684613484   -5.49491e-10   5.79012e-07 DIIS
   @RHF iter  12:   -76.02419684616473   -2.98854e-11   1.77554e-07 DIIS
   @RHF iter  13:   -76.02419684616770   -2.97007e-12   6.02600e-08 DIIS
   @RHF iter  14:   -76.02419684616800   -2.98428e-13   6.75267e-09 DIIS
  Energy and wave function converged.


  ==> Post-Iterations <==

    Orbital Energies [Eh]
    ---------------------

    Doubly Occupied:                                                      

       1A1   -20.554320     2A1    -1.348118     1B2    -0.682100  
       3A1    -0.588268     1B1    -0.496995  

    Virtual:                                                              

       4A1     0.183803     2B2     0.258439     3B2     0.763756  
       5A1     0.900454     6A1     1.178026     2B1     1.198050  
       4B2     1.263145     7A1     1.346956     1A2     1.514993  
       3B1     1.615414     8A1     1.848034     5B2     2.002392  
       6B2     2.451415     9A1     2.529124     2A2     3.307612  
       4B1     3.339058    10A1     3.507899    11A1     3.832512  
       7B2     4.201982  

    Final Occupation by Irrep:
             A1    A2    B1    B2 
    DOCC [     3,    0,    1,    1 ]
    NA   [     3,    0,    1,    1 ]
    NB   [     3,    0,    1,    1 ]

  @RHF Final Energy:   -76.02419684616800

   => Energetics <=

    Nuclear Repulsion Energy =              9.2786594395219364
    One-Electron Energy =                -123.2661103138509873
    Two-Electron Energy =                  37.9632540281610673
    Total Energy =                        -76.0241968461679960

Computation Completed


Properties will be evaluated at   0.000000,   0.000000,   0.000000 [a0]

Properties computed using the SCF density matrix


 Multipole Moments:

 ------------------------------------------------------------------------------------
     Multipole            Electronic (a.u.)      Nuclear  (a.u.)        Total (a.u.)
 ------------------------------------------------------------------------------------

 L = 1.  Multiply by 2.5417464519 to convert [e a0] to [Debye]
 Dipole X            :          0.0000000            0.0000000            0.0000000
 Dipole Y            :          0.0000000            0.0000000            0.0000000
 Dipole Z            :         -0.2110022            1.0737011            0.8626989
 Magnitude           :                                                    0.8626989

 ------------------------------------------------------------------------------------

*** tstop() called on PC001.IRVING.UPEI.CA at Mon May  6 11:16:19 2024
Module time:
	user time   =       1.17 seconds =       0.02 minutes
	system time =       0.05 seconds =       0.00 minutes
	total time  =          0 seconds =       0.00 minutes
Total time:
	user time   =      50.13 seconds =       0.84 minutes
	system time =       2.48 seconds =       0.04 minutes
	total time  =         14 seconds =       0.23 minutes

*** tstart() called on PC001.IRVING.UPEI.CA
*** at Mon May  6 11:16:19 2024


         ------------------------------------------------------------
                                   SCF GRAD                          
                          Rob Parrish, Justin Turney,                
                       Andy Simmonett, and Alex Sokolov              
         ------------------------------------------------------------

  ==> Geometry <==

    Molecular point group: c2v
    Full point group: C2v

    Geometry (in Angstrom), charge = 0, multiplicity = 1:

       Center              X                  Y                   Z               Mass       
    ------------   -----------------  -----------------  -----------------  -----------------
         O            0.000000000000     0.000000000000    -0.072188786209    15.994914619570
         H            0.000000000000    -0.699220381185     0.572844211535     1.007825032230
         H            0.000000000000     0.699220381185     0.572844211535     1.007825032230

  Nuclear repulsion =    9.278659439521936

  ==> Basis Set <==

  -AO BASIS SET INFORMATION:
    Name                   = CC-PVDZ
    Blend                  = CC-PVDZ
    Total number of shells = 12
    Number of primitives   = 32
    Number of AO           = 25
    Number of SO           = 24
    Maximum AM             = 2
    Spherical Harmonics    = TRUE

  -Contraction Scheme:
    Atom   Type   All Primitives // Shells:
   ------ ------ --------------------------
       1     O     17s 4p 1d // 3s 2p 1d 
       2     H     4s 1p // 2s 1p 
       3     H     4s 1p // 2s 1p 

  ==> DirectJKGrad: Integral-Direct SCF Gradients <==

    Gradient:                    1
    J tasked:                  Yes
    K tasked:                  Yes
    wK tasked:                  No
    Integrals threads:           4
    Schwarz Cutoff:          1E-08


  -Nuclear Gradient:
     Atom            X                  Y                   Z
    ------   -----------------  -----------------  -----------------
       1        0.000000000000     0.000000000000     3.356974767032
       2        0.000000000000     1.962682794644    -1.678487383516
       3        0.000000000000    -1.962682794644    -1.678487383516


  -Core Hamiltonian Gradient:
     Atom            X                  Y                   Z
    ------   -----------------  -----------------  -----------------
       1        0.000000000000    -0.000000000000    -8.648817413543
       2        0.000000000000    -4.604828297444     4.324408706772
       3        0.000000000000     4.604828297444     4.324408706772


  -Overlap Gradient:
     Atom            X                  Y                   Z
    ------   -----------------  -----------------  -----------------
       1       -0.000000000000     0.000000000000     0.557061835011
       2       -0.000000000000     0.275596160078    -0.278530917506
       3       -0.000000000000    -0.275596160078    -0.278530917506


  -Coulomb Gradient:
     Atom            X                  Y                   Z
    ------   -----------------  -----------------  -----------------
       1        0.000000000000    -0.000000000000     5.461814389213
       2        0.000000000000     2.756411804048    -2.730907194607
       3        0.000000000000    -2.756411804048    -2.730907194607


  -Exchange Gradient:
     Atom            X                  Y                   Z
    ------   -----------------  -----------------  -----------------
       1       -0.000000000000     0.000000000000    -0.754307433445
       2       -0.000000000000    -0.377149452392     0.377153716722
       3       -0.000000000000     0.377149452392     0.377153716722


  -Total Gradient:
     Atom            X                  Y                   Z
    ------   -----------------  -----------------  -----------------
       1       -0.000000000000     0.000000000000    -0.027273855732
       2       -0.000000000000     0.012713008933     0.013636927866
       3        0.000000000000    -0.012713008933     0.013636927866


*** tstop() called on PC001.IRVING.UPEI.CA at Mon May  6 11:16:19 2024
Module time:
	user time   =       0.20 seconds =       0.00 minutes
	system time =       0.02 seconds =       0.00 minutes
	total time  =          0 seconds =       0.00 minutes
Total time:
	user time   =      50.33 seconds =       0.84 minutes
	system time =       2.50 seconds =       0.04 minutes
	total time  =         14 seconds =       0.23 minutes

    			-----------------------------------------

    			 OPTKING 3.0: for geometry optimizations 

    			     By R.A. King, Bethel University     

    			        with contributions from          

    			    A.V. Copan, J. Cayton, A. Heide      

    			-----------------------------------------

    
	                            ===> Fragment 1 <== 

	 Z (Atomic Numbers)          Masses                          Geom                  
	       8.000000            15.994915          0.00000000  0.00000000 -0.13641704   
	       1.000000             1.007825          0.00000000 -1.32133502  1.08251867   
	       1.000000             1.007825          0.00000000  1.32133502  1.08251867   

	 - Coordinate -           - BOHR/RAD -       - ANG/DEG -
	 R(1,2)           =         1.797701           0.951303
	 R(1,3)           =         1.797701           0.951303
	*B(2,1,3)         =         1.651373          94.616731


	        --- Internal Coordinate Step in ANG or DEG, aJ/ANG or AJ/DEG ---
	-------------------------------------------------------------------------------
	           Coordinate      Previous         Force          Change          New 
	           ----------      --------        ------          ------        ------
	               R(1,2)       0.95130        0.00080        0.00008       0.95139
	               R(1,3)       0.95130        0.00080        0.00008       0.95139
	            *B(2,1,3)      94.61673        0.00000        0.00000      94.61673
	-------------------------------------------------------------------------------

	                                 ==> Convergence Check <==                                  
    
	Measures of convergence in internal coordinates in au.
    
	Criteria marked as inactive (o), active & met (*), and active & unmet ( ).

	----------------------------------------------------------------------------------------------
	   Step    Total Energy     Delta E     Max Force     RMS Force      Max Disp      RMS Disp   
	----------------------------------------------------------------------------------------------
	  Convergence Criteria     1.00e-06 *    3.00e-04 *             o    1.20e-03 *             o
	----------------------------------------------------------------------------------------------
	     2     -76.02419685   -5.52e-05      9.77e-05 *    7.98e-05 o    1.59e-04 *    1.30e-04 o  ~
	----------------------------------------------------------------------------------------------

Next Geometry in Ang 
	Fragment 1 (Ang)

	    O   0.0000000000   0.0000000000  -0.0722267674
	    H   0.0000000000  -0.6992821390   0.5728632021
	    H   0.0000000000   0.6992821390   0.5728632021


    Final optimized geometry and variables:
    Molecular point group: c2v
    Full point group: C2v

    Geometry (in Angstrom), charge = 0, multiplicity = 1:

    O       
    H             1      length
    H             1      length      2       angle

    angle     =   94.6167313661
    length    =    0.9513026383

Molecule: Setting geometry variable angle to 95.616731

Scratch directory: /tmp/
gradient() will perform analytic gradient computation.
   => Libint2 <=

    Primary   basis highest AM E, G, H:  5, 4, 3
    Auxiliary basis highest AM E, G, H:  6, 5, 4
    Onebody   basis highest AM E, G, H:  6, 5, 4
    Solid Harmonics ordering:            Gaussian

*** tstart() called on PC001.IRVING.UPEI.CA
*** at Mon May  6 11:16:19 2024

   => Loading Basis Set <=

    Name: CC-PVDZ
    Role: ORBITAL
    Keyword: BASIS
    atoms 1   entry O          line   198 file /opt/anaconda3/envs/psi4fun/share/psi4/basis/cc-pvdz.gbs 
    atoms 2-3 entry H          line    22 file /opt/anaconda3/envs/psi4fun/share/psi4/basis/cc-pvdz.gbs 


         ---------------------------------------------------------
                                   SCF
               by Justin Turney, Rob Parrish, Andy Simmonett
                          and Daniel G. A. Smith
                              RHF Reference
                        4 Threads,    953 MiB Core
         ---------------------------------------------------------

  ==> Geometry <==

    Molecular point group: c2v
    Full point group: C2v

    Geometry (in Angstrom), charge = 0, multiplicity = 1:

       Center              X                  Y                   Z               Mass       
    ------------   -----------------  -----------------  -----------------  -----------------
         O            0.000000000000     0.000000000000    -0.071503158500    15.994914619570
         H            0.000000000000    -0.704822660368     0.567403506887     1.007825032230
         H            0.000000000000     0.704822660368     0.567403506887     1.007825032230

  Running in c2v symmetry.

  Rotational constants: A =     23.07023  B =     16.83533  C =      9.73285 [cm^-1]
  Rotational constants: A = 691628.09707  B = 504710.50684  C = 291783.58558 [MHz]
  Nuclear repulsion =    9.275651688053721

  Charge       = 0
  Multiplicity = 1
[...]

    			     By R.A. King, Bethel University     

    			        with contributions from          

    			    A.V. Copan, J. Cayton, A. Heide      

    			-----------------------------------------

    
	                            ===> Fragment 1 <== 

	 Z (Atomic Numbers)          Masses                          Geom                  
	       8.000000            15.994915          0.00000000  0.00000000 -0.10767246   
	       1.000000             1.007825          0.00000000 -1.49909452  0.85442005   
	       1.000000             1.007825          0.00000000  1.49909452  0.85442005   

	 - Coordinate -           - BOHR/RAD -       - ANG/DEG -
	 R(1,2)           =         1.781265           0.942605
	 R(1,3)           =         1.781265           0.942605
	*B(2,1,3)         =         2.000439         114.616731


	        --- Internal Coordinate Step in ANG or DEG, aJ/ANG or AJ/DEG ---
	-------------------------------------------------------------------------------
	           Coordinate      Previous         Force          Change          New 
	           ----------      --------        ------          ------        ------
	               R(1,2)       0.94261       -0.00358       -0.00037       0.94224
	               R(1,3)       0.94261       -0.00358       -0.00037       0.94224
	            *B(2,1,3)     114.61673        0.00000        0.00000     114.61673
	-------------------------------------------------------------------------------

	                                 ==> Convergence Check <==                                  
    
	Measures of convergence in internal coordinates in au.
    
	Criteria marked as inactive (o), active & met (*), and active & unmet ( ).

	----------------------------------------------------------------------------------------------
	   Step    Total Energy     Delta E     Max Force     RMS Force      Max Disp      RMS Disp   
	----------------------------------------------------------------------------------------------
	  Convergence Criteria     1.00e-06 *    3.00e-04 *             o    1.20e-03 *             o
	----------------------------------------------------------------------------------------------
	     1     -76.02450476   -7.60e+01      4.34e-04      3.54e-04 o    6.94e-04 *    5.66e-04 o  ~
	----------------------------------------------------------------------------------------------

Next Geometry in Ang 
	Fragment 1 (Ang)

	    O   0.0000000000  -0.0000000000  -0.0568456136
	    H   0.0000000000  -0.7929776768   0.4520735215
	    H   0.0000000000   0.7929776768   0.4520735215


    Structure for next step:
    Molecular point group: c2v
    Full point group: C2v

    Geometry (in Angstrom), charge = 0, multiplicity = 1:

    O       
    H             1      length
    H             1      length      2       angle

    angle     =  114.6167313661
    length    =    0.9422379116


Scratch directory: /tmp/
gradient() will perform analytic gradient computation.
   => Libint2 <=

    Primary   basis highest AM E, G, H:  5, 4, 3
    Auxiliary basis highest AM E, G, H:  6, 5, 4
    Onebody   basis highest AM E, G, H:  6, 5, 4
    Solid Harmonics ordering:            Gaussian

*** tstart() called on PC001.IRVING.UPEI.CA
*** at Mon May  6 11:17:00 2024

   => Loading Basis Set <=

    Name: CC-PVDZ
    Role: ORBITAL
    Keyword: BASIS
    atoms 1   entry O          line   198 file /opt/anaconda3/envs/psi4fun/share/psi4/basis/cc-pvdz.gbs 
    atoms 2-3 entry H          line    22 file /opt/anaconda3/envs/psi4fun/share/psi4/basis/cc-pvdz.gbs 


         ---------------------------------------------------------
                                   SCF
               by Justin Turney, Rob Parrish, Andy Simmonett
                          and Daniel G. A. Smith
                              RHF Reference
                        4 Threads,    953 MiB Core
         ---------------------------------------------------------

  ==> Geometry <==

    Molecular point group: c2v
    Full point group: C2v

    Geometry (in Angstrom), charge = 0, multiplicity = 1:

       Center              X                  Y                   Z               Mass       
    ------------   -----------------  -----------------  -----------------  -----------------
         O            0.000000000000     0.000000000000    -0.056955620519    15.994914619570
         H            0.000000000000    -0.792977676843     0.451963514581     1.007825032230
         H            0.000000000000     0.792977676843     0.451963514581     1.007825032230

  Running in c2v symmetry.

  Rotational constants: A =     36.36045  B =     13.30024  C =      9.73814 [cm^-1]
  Rotational constants: A = 1090058.74896  B = 398731.12612  C = 291942.03949 [MHz]
  Nuclear repulsion =    9.319543110535971

  Charge       = 0
  Multiplicity = 1
  Electrons    = 10
  Nalpha       = 5
  Nbeta        = 5

  ==> Algorithm <==

  SCF Algorithm Type is DIRECT.
  DIIS enabled.
  MOM disabled.
  Fractional occupation disabled.
  Guess Type is READ.
  Energy threshold   = 1.00e-08
  Density threshold  = 1.00e-08
  Integral threshold = 1.00e-08

  ==> Primary Basis <==

  -AO BASIS SET INFORMATION:
    Name                   = CC-PVDZ
    Blend                  = CC-PVDZ
    Total number of shells = 12
    Number of primitives   = 32
    Number of AO           = 25
    Number of SO           = 24
    Maximum AM             = 2
    Spherical Harmonics    = TRUE

  -Contraction Scheme:
    Atom   Type   All Primitives // Shells:
   ------ ------ --------------------------
       1     O     17s 4p 1d // 3s 2p 1d 
       2     H     4s 1p // 2s 1p 
       3     H     4s 1p // 2s 1p 

   => Loading Basis Set <=

    Name: (CC-PVDZ AUX)
    Role: JKFIT
    Keyword: DF_BASIS_SCF
    atoms 1   entry O          line   221 file /opt/anaconda3/envs/psi4fun/share/psi4/basis/cc-pvdz-jkfit.gbs 
    atoms 2-3 entry H          line    51 file /opt/anaconda3/envs/psi4fun/share/psi4/basis/cc-pvdz-jkfit.gbs 

   => Loading Basis Set <=

    Name: CC-PVDZ
    Role: ORBITAL
    Keyword: BASIS
    atoms 1   entry O          line   198 file /opt/anaconda3/envs/psi4fun/share/psi4/basis/cc-pvdz.gbs 
    atoms 2-3 entry H          line    22 file /opt/anaconda3/envs/psi4fun/share/psi4/basis/cc-pvdz.gbs 

  Reading orbitals from file /tmp/H2O_constrainst_3.default.65395.180.npy, no projection.

  Starting with a DF guess...

  ==> Integral Setup <==

  DFHelper Memory: AOs need 0.001 GiB; user supplied 0.698 GiB. 
  Using in-core AOs.

  ==> MemDFJK: Density-Fitted J/K Matrices <==

    J tasked:                   Yes
    K tasked:                   Yes
    wK tasked:                   No
    OpenMP threads:               4
    Memory [MiB]:               715
    Algorithm:                 Core
    Schwarz Cutoff:           1E-08
    Mask sparsity (%):       0.0000
    Fitting Condition:        1E-10

   => Auxiliary Basis Set <=

  -AO BASIS SET INFORMATION:
    Name                   = (CC-PVDZ AUX)
    Blend                  = CC-PVDZ-JKFIT
    Total number of shells = 42
    Number of primitives   = 42
    Number of AO           = 131
    Number of SO           = 116
    Maximum AM             = 3
    Spherical Harmonics    = TRUE

  -Contraction Scheme:
    Atom   Type   All Primitives // Shells:
   ------ ------ --------------------------
       1     O     10s 7p 5d 2f // 10s 7p 5d 2f 
       2     H     4s 3p 2d // 4s 3p 2d 
       3     H     4s 3p 2d // 4s 3p 2d 

  Minimum eigenvalue in the overlap matrix is 3.3139292661E-02.
  Reciprocal condition number of the overlap matrix is 1.0513754973E-02.
    Using symmetric orthogonalization.

  ==> Pre-Iterations <==

  SCF Guess: Orbitals guess was supplied from a previous computation.

   -------------------------------------------------------
    Irrep   Nso     Nmo     Nalpha   Nbeta   Ndocc  Nsocc
   -------------------------------------------------------
     A1        11      11       3       3       3       0
     A2         2       2       0       0       0       0
     B1         4       4       1       1       1       0
     B2         7       7       1       1       1       0
   -------------------------------------------------------
    Total      24      24       5       5       5       0
   -------------------------------------------------------

  ==> Iterations <==

                           Total Energy        Delta E     RMS |[F,P]|

   @DF-RHF iter   0:   -76.02503469481488   -7.60250e+01   9.69296e-05 
   @DF-RHF iter   1:   -76.02448640185735    5.48293e-04   1.58564e-05 DIIS
   @DF-RHF iter   2:   -76.02448642046960   -1.86123e-08   8.33311e-06 DIIS
   @DF-RHF iter   3:   -76.02448642492691   -4.45731e-09   1.16136e-06 DIIS
   @DF-RHF iter   4:   -76.02448642520810   -2.81190e-10   3.36150e-07 DIIS
   @DF-RHF iter   5:   -76.02448642523493   -2.68301e-11   8.06194e-08 DIIS
   @DF-RHF iter   6:   -76.02448642523694   -2.01794e-12   1.20227e-08 DIIS
   @DF-RHF iter   7:   -76.02448642523699   -4.26326e-14   1.69717e-09 DIIS

  DF guess converged.

  ==> DirectJK: Integral-Direct J/K Matrices <==

    J tasked:                  Yes
    K tasked:                  Yes
    wK tasked:                  No
    Integrals threads:           4
    Screening Type:           CSAM
    Screening Cutoff:        1E-08
    Incremental Fock:           No

   @RHF iter   8:   -76.02450504615594   -7.60245e+01   1.09892e-05 DIIS
   @RHF iter   9:   -76.02450505577943   -9.62349e-09   1.68280e-06 DIIS
   @RHF iter  10:   -76.02450505605339   -2.73957e-10   2.45260e-07 DIIS
   @RHF iter  11:   -76.02450505606026   -6.87805e-12   5.52207e-08 DIIS
   @RHF iter  12:   -76.02450505606073   -4.68958e-13   1.83357e-08 DIIS
   @RHF iter  13:   -76.02450505606069    4.26326e-14   2.82626e-09 DIIS
  Energy and wave function converged.


  ==> Post-Iterations <==

    Orbital Energies [Eh]
    ---------------------

    Doubly Occupied:                                                      

       1A1   -20.541884     2A1    -1.336382     1B2    -0.725740  
       3A1    -0.548777     1B1    -0.490506  

    Virtual:                                                              

       4A1     0.189698     2B2     0.256955     5A1     0.819453  
       3B2     0.840243     6A1     1.160062     2B1     1.202994  
       4B2     1.242760     1A2     1.450456     7A1     1.521271  
       3B1     1.731293     8A1     1.889475     5B2     1.895153  
       9A1     2.512408     6B2     2.529422     4B1     3.240204  
       2A2     3.394238    10A1     3.440839    11A1     3.998123  
       7B2     4.094896  

    Final Occupation by Irrep:
             A1    A2    B1    B2 
    DOCC [     3,    0,    1,    1 ]
    NA   [     3,    0,    1,    1 ]
    NB   [     3,    0,    1,    1 ]

  @RHF Final Energy:   -76.02450505606069

   => Energetics <=

    Nuclear Repulsion Energy =              9.3195431105359710
    One-Electron Energy =                -123.4015188473157849
    Two-Electron Energy =                  38.0574706807191205
    Total Energy =                        -76.0245050560606899

Computation Completed


Properties will be evaluated at   0.000000,   0.000000,   0.000000 [a0]

Properties computed using the SCF density matrix


 Multipole Moments:

 ------------------------------------------------------------------------------------
     Multipole            Electronic (a.u.)      Nuclear  (a.u.)        Total (a.u.)
 ------------------------------------------------------------------------------------

 L = 1.  Multiply by 2.5417464519 to convert [e a0] to [Debye]
 Dipole X            :          0.0000000            0.0000000            0.0000000
 Dipole Y            :          0.0000000            0.0000000            0.0000000
 Dipole Z            :         -0.1082833            0.8471303            0.7388470
 Magnitude           :                                                    0.7388470

 ------------------------------------------------------------------------------------

*** tstop() called on PC001.IRVING.UPEI.CA at Mon May  6 11:17:00 2024
Module time:
	user time   =       1.16 seconds =       0.02 minutes
	system time =       0.05 seconds =       0.00 minutes
	total time  =          0 seconds =       0.00 minutes
Total time:
	user time   =     194.32 seconds =       3.24 minutes
	system time =       9.94 seconds =       0.17 minutes
	total time  =         55 seconds =       0.92 minutes

*** tstart() called on PC001.IRVING.UPEI.CA
*** at Mon May  6 11:17:00 2024


         ------------------------------------------------------------
                                   SCF GRAD                          
                          Rob Parrish, Justin Turney,                
                       Andy Simmonett, and Alex Sokolov              
         ------------------------------------------------------------

  ==> Geometry <==

    Molecular point group: c2v
    Full point group: C2v

    Geometry (in Angstrom), charge = 0, multiplicity = 1:

       Center              X                  Y                   Z               Mass       
    ------------   -----------------  -----------------  -----------------  -----------------
         O            0.000000000000     0.000000000000    -0.056955620519    15.994914619570
         H            0.000000000000    -0.792977676843     0.451963514581     1.007825032230
         H            0.000000000000     0.792977676843     0.451963514581     1.007825032230

  Nuclear repulsion =    9.319543110535973

  ==> Basis Set <==

  -AO BASIS SET INFORMATION:
    Name                   = CC-PVDZ
    Blend                  = CC-PVDZ
    Total number of shells = 12
    Number of primitives   = 32
    Number of AO           = 25
    Number of SO           = 24
    Maximum AM             = 2
    Spherical Harmonics    = TRUE

  -Contraction Scheme:
    Atom   Type   All Primitives // Shells:
   ------ ------ --------------------------
       1     O     17s 4p 1d // 3s 2p 1d 
       2     H     4s 1p // 2s 1p 
       3     H     4s 1p // 2s 1p 

  ==> DirectJKGrad: Integral-Direct SCF Gradients <==

    Gradient:                    1
    J tasked:                  Yes
    K tasked:                  Yes
    wK tasked:                  No
    Integrals threads:           4
    Schwarz Cutoff:          1E-08


  -Nuclear Gradient:
     Atom            X                  Y                   Z
    ------   -----------------  -----------------  -----------------
       1        0.000000000000     0.000000000000     2.725770615692
       2        0.000000000000     2.234926093912    -1.362885307846
       3        0.000000000000    -2.234926093912    -1.362885307846


  -Core Hamiltonian Gradient:
     Atom            X                  Y                   Z
    ------   -----------------  -----------------  -----------------
       1        0.000000000000     0.000000000000    -6.601573136637
       2        0.000000000000    -5.573633585655     3.300786568318
       3        0.000000000000     5.573633585655     3.300786568318


  -Overlap Gradient:
     Atom            X                  Y                   Z
    ------   -----------------  -----------------  -----------------
       1       -0.000000000000     0.000000000000     0.432333715837
       2       -0.000000000000     0.330927951719    -0.216166857918
       3       -0.000000000000    -0.330927951719    -0.216166857918


  -Coulomb Gradient:
     Atom            X                  Y                   Z
    ------   -----------------  -----------------  -----------------
       1        0.000000000000     0.000000000000     4.024080209262
       2        0.000000000000     3.475833895890    -2.012040104631
       3        0.000000000000    -3.475833895890    -2.012040104631


  -Exchange Gradient:
     Atom            X                  Y                   Z
    ------   -----------------  -----------------  -----------------
       1       -0.000000000000     0.000000000000    -0.553989523449
       2       -0.000000000000    -0.476596421075     0.276994761725
       3       -0.000000000000     0.476596421075     0.276994761725


  -Total Gradient:
     Atom            X                  Y                   Z
    ------   -----------------  -----------------  -----------------
       1        0.000000000000     0.000000000000     0.026621880706
       2        0.000000000000    -0.008542065209    -0.013310940353
       3       -0.000000000000     0.008542065209    -0.013310940353


*** tstop() called on PC001.IRVING.UPEI.CA at Mon May  6 11:17:00 2024
Module time:
	user time   =       0.20 seconds =       0.00 minutes
	system time =       0.02 seconds =       0.00 minutes
	total time  =          0 seconds =       0.00 minutes
Total time:
	user time   =     194.52 seconds =       3.24 minutes
	system time =       9.96 seconds =       0.17 minutes
	total time  =         55 seconds =       0.92 minutes

    			-----------------------------------------

    			 OPTKING 3.0: for geometry optimizations 

    			     By R.A. King, Bethel University     

    			        with contributions from          

    			    A.V. Copan, J. Cayton, A. Heide      

    			-----------------------------------------

    
	                            ===> Fragment 1 <== 

	 Z (Atomic Numbers)          Masses                          Geom                  
	       8.000000            15.994915          0.00000000  0.00000000 -0.10763052   
	       1.000000             1.007825          0.00000000 -1.49851063  0.85408726   
	       1.000000             1.007825          0.00000000  1.49851063  0.85408726   

	 - Coordinate -           - BOHR/RAD -       - ANG/DEG -
	 R(1,2)           =         1.780572           0.942238
	 R(1,3)           =         1.780572           0.942238
	*B(2,1,3)         =         2.000439         114.616731


	        --- Internal Coordinate Step in ANG or DEG, aJ/ANG or AJ/DEG ---
	-------------------------------------------------------------------------------
	           Coordinate      Previous         Force          Change          New 
	           ----------      --------        ------          ------        ------
	               R(1,2)       0.94224        0.00000        0.00000       0.94224
	               R(1,3)       0.94224        0.00000        0.00000       0.94224
	            *B(2,1,3)     114.61673        0.00000        0.00000     114.61673
	-------------------------------------------------------------------------------

	                                 ==> Convergence Check <==                                  
    
	Measures of convergence in internal coordinates in au.
    
	Criteria marked as inactive (o), active & met (*), and active & unmet ( ).

	----------------------------------------------------------------------------------------------
	   Step    Total Energy     Delta E     Max Force     RMS Force      Max Disp      RMS Disp   
	----------------------------------------------------------------------------------------------
	  Convergence Criteria     1.00e-06 *    3.00e-04 *             o    1.20e-03 *             o
	----------------------------------------------------------------------------------------------
	     2     -76.02450506   -3.01e-07 *    5.57e-07 *    4.55e-07 o    8.90e-07 *    7.27e-07 o  ~
	----------------------------------------------------------------------------------------------

Next Geometry in Ang 
	Fragment 1 (Ang)

	    O   0.0000000000  -0.0000000000  -0.0569557901
	    H   0.0000000000  -0.7929780731   0.4519635994
	    H   0.0000000000   0.7929780731   0.4519635994


    Final optimized geometry and variables:
    Molecular point group: c2v
    Full point group: C2v

    Geometry (in Angstrom), charge = 0, multiplicity = 1:

    O       
    H             1      length
    H             1      length      2       angle

    angle     =  114.6167313661
    length    =    0.9422379116


  Memory set to 953.674 MiB by Python driver.
