
    -----------------------------------------------------------------------
          Psi4: An Open-Source Ab Initio Electronic Structure Package
                               Psi4 1.9.1 release

                         Git: Rev {} zzzzzzz 


    D. G. A. Smith, L. A. Burns, A. C. Simmonett, R. M. Parrish,
    M. C. Schieber, R. Galvelis, P. Kraus, H. Kruse, R. Di Remigio,
    A. Alenaizan, A. M. James, S. Lehtola, J. P. Misiewicz, M. Scheurer,
    R. A. Shaw, J. B. Schriber, Y. Xie, Z. L. Glick, D. A. Sirianni,
    J. S. O'Brien, J. M. Waldrop, A. Kumar, E. G. Hohenstein,
    B. P. Pritchard, B. R. Brooks, H. F. Schaefer III, A. Yu. Sokolov,
    K. Patkowski, A. E. DePrince III, U. Bozkaya, R. A. King,
    F. A. Evangelista, J. M. Turney, T. D. Crawford, C. D. Sherrill,
    J. Chem. Phys. 152(18) 184108 (2020). https://doi.org/10.1063/5.0006002

                            Additional Code Authors
    E. T. Seidl, C. L. Janssen, E. F. Valeev, M. L. Leininger,
    J. F. Gonthier, R. M. Richard, H. R. McAlexander, M. Saitow, X. Wang,
    P. Verma, M. H. Lechner, A. Jiang, S. Behnle, A. G. Heide,
    M. F. Herbst, and D. L. Poole

             Previous Authors, Complete List of Code Contributors,
                       and Citations for Specific Modules
    https://github.com/psi4/psi4/blob/master/codemeta.json
    https://github.com/psi4/psi4/graphs/contributors
    http://psicode.org/psi4manual/master/introduction.html#citing-psifour

    -----------------------------------------------------------------------


    Psi4 started on: Monday, 06 May 2024 01:51PM

    Process ID: 25345
    Host:       Barrys-MacBook-Pro.local
    PSIDATADIR: /Users/blink/psi4conda/share/psi4
    Memory:     953.7 MiB
    Threads:    4
      Threads set to 4 by Python driver.

Scratch directory: /tmp/
gradient() will perform analytic gradient computation.
   => Libint2 <=

    Primary   basis highest AM E, G, H:  5, 4, 3
    Auxiliary basis highest AM E, G, H:  6, 5, 4
    Onebody   basis highest AM E, G, H:  6, 5, 4
    Solid Harmonics ordering:            Gaussian

*** tstart() called on Barrys-MacBook-Pro.local
*** at Mon May  6 13:55:04 2024

   => Loading Basis Set <=

    Name: CC-PVDZ
    Role: ORBITAL
    Keyword: BASIS
    atoms 1   entry O          line   198 file /Users/blink/psi4conda/share/psi4/basis/cc-pvdz.gbs 
    atoms 2-3 entry H          line    22 file /Users/blink/psi4conda/share/psi4/basis/cc-pvdz.gbs 


         ---------------------------------------------------------
                                   SCF
               by Justin Turney, Rob Parrish, Andy Simmonett
                          and Daniel G. A. Smith
                              RHF Reference
                        4 Threads,    953 MiB Core
         ---------------------------------------------------------

  ==> Geometry <==

    Molecular point group: c2v
    Full point group: C2v

    Geometry (in Angstrom), charge = 0, multiplicity = 1:

       Center              X                  Y                   Z               Mass       
    ------------   -----------------  -----------------  -----------------  -----------------
         O            0.000000000000     0.000000000000    -0.064191734195    15.994914619570
         H            0.000000000000    -0.819152044289     0.509384702156     1.007825032230
         H            0.000000000000     0.819152044289     0.509384702156     1.007825032230

  Running in c2v symmetry.

  Rotational constants: A =     28.62491  B =     12.46385  C =      8.68307 [cm^-1]
  Rotational constants: A = 858153.27280  B = 373656.91489  C = 260311.94385 [MHz]
  Nuclear repulsion =    8.789838416588804

  Charge       = 0
  Multiplicity = 1
  Electrons    = 10
  Nalpha       = 5
  Nbeta        = 5

  ==> Algorithm <==

  SCF Algorithm Type is DIRECT.
  DIIS enabled.
  MOM disabled.
  Fractional occupation disabled.
  Guess Type is SAD.
  Energy threshold   = 1.00e-08
  Density threshold  = 1.00e-08
  Integral threshold = 1.00e-08

  ==> Primary Basis <==

  -AO BASIS SET INFORMATION:
    Name                   = CC-PVDZ
    Blend                  = CC-PVDZ
    Total number of shells = 12
    Number of primitives   = 32
    Number of AO           = 25
    Number of SO           = 24
    Maximum AM             = 2
    Spherical Harmonics    = TRUE

  -Contraction Scheme:
    Atom   Type   All Primitives // Shells:
   ------ ------ --------------------------
       1     O     17s 4p 1d // 3s 2p 1d 
       2     H     4s 1p // 2s 1p 
       3     H     4s 1p // 2s 1p 

   => Loading Basis Set <=

    Name: (CC-PVDZ AUX)
    Role: JKFIT
    Keyword: DF_BASIS_SCF
    atoms 1   entry O          line   221 file /Users/blink/psi4conda/share/psi4/basis/cc-pvdz-jkfit.gbs 
    atoms 2-3 entry H          line    51 file /Users/blink/psi4conda/share/psi4/basis/cc-pvdz-jkfit.gbs 

  Starting with a DF guess...

  ==> Integral Setup <==

  DFHelper Memory: AOs need 0.001 GiB; user supplied 0.698 GiB. 
  Using in-core AOs.

  ==> MemDFJK: Density-Fitted J/K Matrices <==

    J tasked:                   Yes
    K tasked:                   Yes
    wK tasked:                   No
    OpenMP threads:               4
    Memory [MiB]:               715
    Algorithm:                 Core
    Schwarz Cutoff:           1E-08
    Mask sparsity (%):       0.0000
    Fitting Condition:        1E-10

   => Auxiliary Basis Set <=

  -AO BASIS SET INFORMATION:
    Name                   = (CC-PVDZ AUX)
    Blend                  = CC-PVDZ-JKFIT
    Total number of shells = 42
    Number of primitives   = 42
    Number of AO           = 131
    Number of SO           = 116
    Maximum AM             = 3
    Spherical Harmonics    = TRUE

  -Contraction Scheme:
    Atom   Type   All Primitives // Shells:
   ------ ------ --------------------------
       1     O     10s 7p 5d 2f // 10s 7p 5d 2f 
       2     H     4s 3p 2d // 4s 3p 2d 
       3     H     4s 3p 2d // 4s 3p 2d 

  Minimum eigenvalue in the overlap matrix is 3.6991298334E-02.
  Reciprocal condition number of the overlap matrix is 1.1950053665E-02.
    Using symmetric orthogonalization.

  ==> Pre-Iterations <==

  SCF Guess: Superposition of Atomic Densities via on-the-fly atomic UHF (no occupation information).

   -------------------------
    Irrep   Nso     Nmo    
   -------------------------
     A1        11      11 
     A2         2       2 
     B1         4       4 
     B2         7       7 
   -------------------------
    Total      24      24
   -------------------------

  ==> Iterations <==

                           Total Energy        Delta E     RMS |[F,P]|

   @DF-RHF iter SAD:   -75.44577707197054   -7.54458e+01   0.00000e+00 
   @DF-RHF iter   1:   -75.94547331051503   -4.99696e-01   3.02331e-02 ADIIS/DIIS
   @DF-RHF iter   2:   -75.99874243640309   -5.32691e-02   1.80183e-02 ADIIS/DIIS
   @DF-RHF iter   3:   -76.01940175716568   -2.06593e-02   2.45166e-03 ADIIS/DIIS
   @DF-RHF iter   4:   -76.02009064732880   -6.88890e-04   4.26019e-04 ADIIS/DIIS
   @DF-RHF iter   5:   -76.02011844772230   -2.78004e-05   7.92144e-05 DIIS
   @DF-RHF iter   6:   -76.02011986257202   -1.41485e-06   1.36803e-05 DIIS
   @DF-RHF iter   7:   -76.02011991349615   -5.09241e-08   2.55770e-06 DIIS
   @DF-RHF iter   8:   -76.02011991538214   -1.88599e-09   5.30455e-07 DIIS
   @DF-RHF iter   9:   -76.02011991546181   -7.96661e-11   6.75194e-08 DIIS
   @DF-RHF iter  10:   -76.02011991546271   -9.09495e-13   6.21990e-09 DIIS

  DF guess converged.

  ==> DirectJK: Integral-Direct J/K Matrices <==

    J tasked:                  Yes
    K tasked:                  Yes
    wK tasked:                  No
    Integrals threads:           4
    Screening Type:           CSAM
    Screening Cutoff:        1E-08
    Incremental Fock:           No

   @RHF iter  11:   -76.02013976395067   -7.60201e+01   1.23664e-05 DIIS
   @RHF iter  12:   -76.02013977616603   -1.22154e-08   1.89391e-06 DIIS
   @RHF iter  13:   -76.02013977651782   -3.51790e-10   3.37357e-07 DIIS
   @RHF iter  14:   -76.02013977652838   -1.05587e-11   1.06638e-07 DIIS
   @RHF iter  15:   -76.02013977652959   -1.20792e-12   4.11289e-08 DIIS
   @RHF iter  16:   -76.02013977652975   -1.56319e-13   3.94789e-09 DIIS
  Energy and wave function converged.


  ==> Post-Iterations <==

    Orbital Energies [Eh]
    ---------------------

    Doubly Occupied:                                                      

       1A1   -20.554399     2A1    -1.312094     1B2    -0.686168  
       3A1    -0.547733     1B1    -0.488119  

    Virtual:                                                              

       4A1     0.178463     2B2     0.249285     3B2     0.779226  
       5A1     0.792090     6A1     1.164352     2B1     1.200439  
       4B2     1.250109     1A2     1.450588     7A1     1.498108  
       3B1     1.694312     5B2     1.862071     8A1     1.888930  
       6B2     2.370771     9A1     2.381690     4B1     3.222283  
       2A2     3.317509    10A1     3.417202    11A1     3.869900  
       7B2     4.067425  

    Final Occupation by Irrep:
             A1    A2    B1    B2 
    DOCC [     3,    0,    1,    1 ]
    NA   [     3,    0,    1,    1 ]
    NB   [     3,    0,    1,    1 ]

  @RHF Final Energy:   -76.02013977652975

   => Energetics <=

    Nuclear Repulsion Energy =              8.7898384165888039
    One-Electron Energy =                -122.4429293858958800
    Two-Electron Energy =                  37.6329511927773197
    Total Energy =                        -76.0201397765297600

Computation Completed


Properties will be evaluated at   0.000000,   0.000000,   0.000000 [a0]

Properties computed using the SCF density matrix


 Multipole Moments:

 ------------------------------------------------------------------------------------
     Multipole            Electronic (a.u.)      Nuclear  (a.u.)        Total (a.u.)
 ------------------------------------------------------------------------------------

 L = 1.  Multiply by 2.5417464519 to convert [e a0] to [Debye]
 Dipole X            :          0.0000000            0.0000000            0.0000000
 Dipole Y            :          0.0000000            0.0000000            0.0000000
 Dipole Z            :         -0.1653431            0.9547568            0.7894136
 Magnitude           :                                                    0.7894136

 ------------------------------------------------------------------------------------

*** tstop() called on Barrys-MacBook-Pro.local at Mon May  6 13:55:05 2024
Module time:
	user time   =       1.47 seconds =       0.02 minutes
	system time =       0.08 seconds =       0.00 minutes
	total time  =          1 seconds =       0.02 minutes
Total time:
	user time   =      47.64 seconds =       0.79 minutes
	system time =       2.41 seconds =       0.04 minutes
	total time  =        108 seconds =       1.80 minutes

*** tstart() called on Barrys-MacBook-Pro.local
*** at Mon May  6 13:55:05 2024


         ------------------------------------------------------------
                                   SCF GRAD                          
                          Rob Parrish, Justin Turney,                
                       Andy Simmonett, and Alex Sokolov              
         ------------------------------------------------------------

  ==> Geometry <==

    Molecular point group: c2v
    Full point group: C2v

    Geometry (in Angstrom), charge = 0, multiplicity = 1:

       Center              X                  Y                   Z               Mass       
    ------------   -----------------  -----------------  -----------------  -----------------
         O            0.000000000000     0.000000000000    -0.064191734195    15.994914619570
         H            0.000000000000    -0.819152044289     0.509384702156     1.007825032230
         H            0.000000000000     0.819152044289     0.509384702156     1.007825032230

  Nuclear repulsion =    8.789838416588804

  ==> Basis Set <==

  -AO BASIS SET INFORMATION:
    Name                   = CC-PVDZ
    Blend                  = CC-PVDZ
    Total number of shells = 12
    Number of primitives   = 32
    Number of AO           = 25
    Number of SO           = 24
    Maximum AM             = 2
    Spherical Harmonics    = TRUE

  -Contraction Scheme:
    Atom   Type   All Primitives // Shells:
   ------ ------ --------------------------
       1     O     17s 4p 1d // 3s 2p 1d 
       2     H     4s 1p // 2s 1p 
       3     H     4s 1p // 2s 1p 

  ==> DirectJKGrad: Integral-Direct SCF Gradients <==

    Gradient:                    1
    J tasked:                  Yes
    K tasked:                  Yes
    wK tasked:                  No
    Integrals threads:           4
    Schwarz Cutoff:          1E-08


  -Nuclear Gradient:
     Atom            X                  Y                   Z
    ------   -----------------  -----------------  -----------------
       1        0.000000000000     0.000000000000     2.569884171936
       2        0.000000000000     1.939418446495    -1.284942085968
       3        0.000000000000    -1.939418446495    -1.284942085968


  -Core Hamiltonian Gradient:
     Atom            X                  Y                   Z
    ------   -----------------  -----------------  -----------------
       1        0.000000000000    -0.000000000000    -6.589203860744
       2        0.000000000000    -4.991213620033     3.294601930372
       3        0.000000000000     4.991213620033     3.294601930372


  -Overlap Gradient:
     Atom            X                  Y                   Z
    ------   -----------------  -----------------  -----------------
       1       -0.000000000000    -0.000000000000     0.431815921132
       2       -0.000000000000     0.297781873214    -0.215907960566
       3       -0.000000000000    -0.297781873214    -0.215907960566


  -Coulomb Gradient:
     Atom            X                  Y                   Z
    ------   -----------------  -----------------  -----------------
       1        0.000000000000     0.000000000000     4.105732419904
       2        0.000000000000     3.130089996502    -2.052866209952
       3        0.000000000000    -3.130089996502    -2.052866209952


  -Exchange Gradient:
     Atom            X                  Y                   Z
    ------   -----------------  -----------------  -----------------
       1       -0.000000000000     0.000000000000    -0.562491869451
       2       -0.000000000000    -0.427127364202     0.281245934725
       3       -0.000000000000     0.427127364202     0.281245934725


  -Total Gradient:
     Atom            X                  Y                   Z
    ------   -----------------  -----------------  -----------------
       1        0.000000000000     0.000000000000    -0.044263217223
       2        0.000000000000    -0.051050668024     0.022131608611
       3       -0.000000000000     0.051050668024     0.022131608611


*** tstop() called on Barrys-MacBook-Pro.local at Mon May  6 13:55:05 2024
Module time:
	user time   =       0.21 seconds =       0.00 minutes
	system time =       0.02 seconds =       0.00 minutes
	total time  =          0 seconds =       0.00 minutes
Total time:
	user time   =      47.86 seconds =       0.80 minutes
	system time =       2.43 seconds =       0.04 minutes
	total time  =        108 seconds =       1.80 minutes
hessian() using ref_gradient to assess stationary point.

  Based on options and gradient (rms=3.01E-02), recommend projecting translations and not projecting rotations.
hessian() will perform analytic frequency computation.
   => Libint2 <=

    Primary   basis highest AM E, G, H:  5, 4, 3
    Auxiliary basis highest AM E, G, H:  6, 5, 4
    Onebody   basis highest AM E, G, H:  6, 5, 4
    Solid Harmonics ordering:            Gaussian

*** tstart() called on Barrys-MacBook-Pro.local
*** at Mon May  6 13:55:05 2024

   => Loading Basis Set <=

    Name: CC-PVDZ
    Role: ORBITAL
    Keyword: BASIS
    atoms 1   entry O          line   198 file /Users/blink/psi4conda/share/psi4/basis/cc-pvdz.gbs 
    atoms 2-3 entry H          line    22 file /Users/blink/psi4conda/share/psi4/basis/cc-pvdz.gbs 


         ---------------------------------------------------------
                                   SCF
               by Justin Turney, Rob Parrish, Andy Simmonett
                          and Daniel G. A. Smith
                              RHF Reference
                        4 Threads,    953 MiB Core
         ---------------------------------------------------------

  ==> Geometry <==

    Molecular point group: c2v
    Full point group: C2v

    Geometry (in Angstrom), charge = 0, multiplicity = 1:

       Center              X                  Y                   Z               Mass       
    ------------   -----------------  -----------------  -----------------  -----------------
         O            0.000000000000     0.000000000000    -0.064191734195    15.994914619570
         H            0.000000000000    -0.819152044289     0.509384702156     1.007825032230
         H            0.000000000000     0.819152044289     0.509384702156     1.007825032230

  Running in c2v symmetry.

  Rotational constants: A =     28.62491  B =     12.46385  C =      8.68307 [cm^-1]
  Rotational constants: A = 858153.27280  B = 373656.91489  C = 260311.94385 [MHz]
  Nuclear repulsion =    8.789838416588804

  Charge       = 0
  Multiplicity = 1
  Electrons    = 10
  Nalpha       = 5
  Nbeta        = 5

  ==> Algorithm <==

  SCF Algorithm Type is DIRECT.
  DIIS enabled.
  MOM disabled.
  Fractional occupation disabled.
  Guess Type is SAD.
  Energy threshold   = 1.00e-08
  Density threshold  = 1.00e-08
  Integral threshold = 1.00e-08

  ==> Primary Basis <==

  -AO BASIS SET INFORMATION:
    Name                   = CC-PVDZ
    Blend                  = CC-PVDZ
    Total number of shells = 12
    Number of primitives   = 32
    Number of AO           = 25
    Number of SO           = 24
    Maximum AM             = 2
    Spherical Harmonics    = TRUE

  -Contraction Scheme:
    Atom   Type   All Primitives // Shells:
   ------ ------ --------------------------
       1     O     17s 4p 1d // 3s 2p 1d 
       2     H     4s 1p // 2s 1p 
       3     H     4s 1p // 2s 1p 

   => Loading Basis Set <=

    Name: (CC-PVDZ AUX)
    Role: JKFIT
    Keyword: DF_BASIS_SCF
    atoms 1   entry O          line   221 file /Users/blink/psi4conda/share/psi4/basis/cc-pvdz-jkfit.gbs 
    atoms 2-3 entry H          line    51 file /Users/blink/psi4conda/share/psi4/basis/cc-pvdz-jkfit.gbs 

  Starting with a DF guess...

  ==> Integral Setup <==

  DFHelper Memory: AOs need 0.001 GiB; user supplied 0.698 GiB. 
  Using in-core AOs.

  ==> MemDFJK: Density-Fitted J/K Matrices <==

    J tasked:                   Yes
    K tasked:                   Yes
    wK tasked:                   No
    OpenMP threads:               4
    Memory [MiB]:               715
    Algorithm:                 Core
    Schwarz Cutoff:           1E-08
    Mask sparsity (%):       0.0000
    Fitting Condition:        1E-10

   => Auxiliary Basis Set <=

  -AO BASIS SET INFORMATION:
    Name                   = (CC-PVDZ AUX)
    Blend                  = CC-PVDZ-JKFIT
    Total number of shells = 42
    Number of primitives   = 42
    Number of AO           = 131
    Number of SO           = 116
    Maximum AM             = 3
    Spherical Harmonics    = TRUE

  -Contraction Scheme:
    Atom   Type   All Primitives // Shells:
   ------ ------ --------------------------
       1     O     10s 7p 5d 2f // 10s 7p 5d 2f 
       2     H     4s 3p 2d // 4s 3p 2d 
       3     H     4s 3p 2d // 4s 3p 2d 

  Minimum eigenvalue in the overlap matrix is 3.6991298334E-02.
  Reciprocal condition number of the overlap matrix is 1.1950053665E-02.
    Using symmetric orthogonalization.

  ==> Pre-Iterations <==

  SCF Guess: Superposition of Atomic Densities via on-the-fly atomic UHF (no occupation information).

   -------------------------
    Irrep   Nso     Nmo    
   -------------------------
     A1        11      11 
     A2         2       2 
     B1         4       4 
     B2         7       7 
   -------------------------
    Total      24      24
   -------------------------

  ==> Iterations <==

                           Total Energy        Delta E     RMS |[F,P]|

   @DF-RHF iter SAD:   -75.44577707197126   -7.54458e+01   0.00000e+00 
   @DF-RHF iter   1:   -75.94547331051565   -4.99696e-01   3.02331e-02 ADIIS/DIIS
   @DF-RHF iter   2:   -75.99874243640365   -5.32691e-02   1.80183e-02 ADIIS/DIIS
   @DF-RHF iter   3:   -76.01940175716619   -2.06593e-02   2.45166e-03 ADIIS/DIIS
   @DF-RHF iter   4:   -76.02009064732937   -6.88890e-04   4.26019e-04 ADIIS/DIIS
   @DF-RHF iter   5:   -76.02011844772292   -2.78004e-05   7.92144e-05 DIIS
   @DF-RHF iter   6:   -76.02011986257263   -1.41485e-06   1.36803e-05 DIIS
   @DF-RHF iter   7:   -76.02011991349676   -5.09241e-08   2.55770e-06 DIIS
   @DF-RHF iter   8:   -76.02011991538276   -1.88601e-09   5.30455e-07 DIIS
   @DF-RHF iter   9:   -76.02011991546240   -7.96376e-11   6.75194e-08 DIIS
   @DF-RHF iter  10:   -76.02011991546337   -9.66338e-13   6.21990e-09 DIIS

  DF guess converged.

  ==> DirectJK: Integral-Direct J/K Matrices <==

    J tasked:                  Yes
    K tasked:                  Yes
    wK tasked:                  No
    Integrals threads:           4
    Screening Type:           CSAM
    Screening Cutoff:        1E-08
    Incremental Fock:           No

   @RHF iter  11:   -76.02013976395070   -7.60201e+01   1.23664e-05 DIIS
   @RHF iter  12:   -76.02013977616602   -1.22153e-08   1.89391e-06 DIIS
   @RHF iter  13:   -76.02013977651784   -3.51818e-10   3.37357e-07 DIIS
   @RHF iter  14:   -76.02013977652835   -1.05160e-11   1.06638e-07 DIIS
   @RHF iter  15:   -76.02013977652952   -1.16529e-12   4.11289e-08 DIIS
   @RHF iter  16:   -76.02013977652969   -1.70530e-13   3.94789e-09 DIIS
  Energy and wave function converged.


  ==> Post-Iterations <==

    Orbital Energies [Eh]
    ---------------------

    Doubly Occupied:                                                      

       1A1   -20.554399     2A1    -1.312094     1B2    -0.686168  
       3A1    -0.547733     1B1    -0.488119  

    Virtual:                                                              

       4A1     0.178463     2B2     0.249285     3B2     0.779226  
       5A1     0.792090     6A1     1.164352     2B1     1.200439  
       4B2     1.250109     1A2     1.450588     7A1     1.498108  
       3B1     1.694312     5B2     1.862071     8A1     1.888930  
       6B2     2.370771     9A1     2.381690     4B1     3.222283  
       2A2     3.317509    10A1     3.417202    11A1     3.869900  
       7B2     4.067425  

    Final Occupation by Irrep:
             A1    A2    B1    B2 
    DOCC [     3,    0,    1,    1 ]
    NA   [     3,    0,    1,    1 ]
    NB   [     3,    0,    1,    1 ]

  @RHF Final Energy:   -76.02013977652969

   => Energetics <=

    Nuclear Repulsion Energy =              8.7898384165888039
    One-Electron Energy =                -122.4429293858958374
    Two-Electron Energy =                  37.6329511927773339
    Total Energy =                        -76.0201397765297031

Computation Completed


Properties will be evaluated at   0.000000,   0.000000,   0.000000 [a0]

Properties computed using the SCF density matrix


 Multipole Moments:

 ------------------------------------------------------------------------------------
     Multipole            Electronic (a.u.)      Nuclear  (a.u.)        Total (a.u.)
 ------------------------------------------------------------------------------------

 L = 1.  Multiply by 2.5417464519 to convert [e a0] to [Debye]
 Dipole X            :          0.0000000            0.0000000            0.0000000
 Dipole Y            :          0.0000000            0.0000000            0.0000000
 Dipole Z            :         -0.1653431            0.9547568            0.7894136
 Magnitude           :                                                    0.7894136

 ------------------------------------------------------------------------------------

*** tstop() called on Barrys-MacBook-Pro.local at Mon May  6 13:55:05 2024
Module time:
	user time   =       1.55 seconds =       0.03 minutes
	system time =       0.08 seconds =       0.00 minutes
	total time  =          0 seconds =       0.00 minutes
Total time:
	user time   =      49.54 seconds =       0.83 minutes
	system time =       2.51 seconds =       0.04 minutes
	total time  =        108 seconds =       1.80 minutes

*** tstart() called on Barrys-MacBook-Pro.local
*** at Mon May  6 13:55:05 2024


         ------------------------------------------------------------
                                   SCF HESS                          
                          Rob Parrish, Justin Turney,                
                       Andy Simmonett, and Alex Sokolov              
         ------------------------------------------------------------

  ==> Geometry <==

    Molecular point group: c2v
    Full point group: C2v

    Geometry (in Angstrom), charge = 0, multiplicity = 1:

       Center              X                  Y                   Z               Mass       
    ------------   -----------------  -----------------  -----------------  -----------------
         O            0.000000000000     0.000000000000    -0.064191734195    15.994914619570
         H            0.000000000000    -0.819152044289     0.509384702156     1.007825032230
         H            0.000000000000     0.819152044289     0.509384702156     1.007825032230

  Nuclear repulsion =    8.789838416588804

  ==> Basis Set <==

  -AO BASIS SET INFORMATION:
    Name                   = CC-PVDZ
    Blend                  = CC-PVDZ
    Total number of shells = 12
    Number of primitives   = 32
    Number of AO           = 25
    Number of SO           = 24
    Maximum AM             = 2
    Spherical Harmonics    = TRUE

  -Contraction Scheme:
    Atom   Type   All Primitives // Shells:
   ------ ------ --------------------------
       1     O     17s 4p 1d // 3s 2p 1d 
       2     H     4s 1p // 2s 1p 
       3     H     4s 1p // 2s 1p 

  ==> DirectJKGrad: Integral-Direct SCF Gradients <==

    Gradient:                    2
    J tasked:                  Yes
    K tasked:                  Yes
    wK tasked:                  No
    Integrals threads:           4
    Schwarz Cutoff:          1E-08

  ## JHess (Symmetry 0) ##
  Irrep: 1 Size: 9 x 9

                 1                   2                   3                   4                   5

    1    -7.25384721861540     0.00000000000000     0.00000000000000     3.62692360930766     0.00000000000000
    2     0.00000000000000    -1.89483653611285    -0.00000000000000     0.00000000000000     0.94741826805638
    3     0.00000000000000    -0.00000000000000    -4.99579997718153     0.00000000000000     1.71510043523034
    4     3.62692360930766     0.00000000000000     0.00000000000000    -3.59894732344597     0.00000000000000
    5     0.00000000000000     0.94741826805638     1.71510043523034     0.00000000000000    -0.95537112011449
    6     0.00000000000000     1.69112184732790     2.49789998859072     0.00000000000000    -1.70311114127912
    7     3.62692360930766     0.00000000000000     0.00000000000000    -0.02797628586169     0.00000000000000
    8     0.00000000000000     0.94741826805638    -1.71510043523034     0.00000000000000     0.00795285205811
    9     0.00000000000000    -1.69112184732790     2.49789998859072     0.00000000000000    -0.01198929395122

                 6                   7                   8                   9

    1     0.00000000000000     3.62692360930766     0.00000000000000     0.00000000000000
    2     1.69112184732790     0.00000000000000     0.94741826805638    -1.69112184732790
    3     2.49789998859072     0.00000000000000    -1.71510043523034     2.49789998859072
    4     0.00000000000000    -0.02797628586169     0.00000000000000     0.00000000000000
    5    -1.70311114127912     0.00000000000000     0.00795285205811    -0.01198929395122
    6    -2.46594245347661     0.00000000000000     0.01198929395122    -0.03195753511411
    7     0.00000000000000    -3.59894732344597     0.00000000000000     0.00000000000000
    8     0.01198929395122     0.00000000000000    -0.95537112011450     1.70311114127912
    9    -0.03195753511411     0.00000000000000     1.70311114127912    -2.46594245347661



  ## KHess (Symmetry 0) ##
  Irrep: 1 Size: 9 x 9

                 1                   2                   3                   4                   5

    1    -0.91772011299829     0.00000000000000     0.00000000000000     0.45886005649913     0.00000000000000
    2     0.00000000000000    -0.05462892853377    -0.00000000000000     0.00000000000000     0.02731446426688
    3     0.00000000000000    -0.00000000000000    -0.56621657431623     0.00000000000000     0.25814449853621
    4     0.45886005649913     0.00000000000000     0.00000000000000    -0.44550508817525     0.00000000000000
    5     0.00000000000000     0.02731446426688     0.25814449853621     0.00000000000000    -0.02857306411367
    6     0.00000000000000     0.30844692952290     0.28310828715810     0.00000000000000    -0.28329571402955
    7     0.45886005649913     0.00000000000000     0.00000000000000    -0.01335496832388     0.00000000000000
    8     0.00000000000000     0.02731446426687    -0.25814449853621     0.00000000000000     0.00125859984679
    9     0.00000000000000    -0.30844692952289     0.28310828715810     0.00000000000000     0.02515121549334

                 6                   7                   8                   9

    1     0.00000000000000     0.45886005649913     0.00000000000000     0.00000000000000
    2     0.30844692952290     0.00000000000000     0.02731446426687    -0.30844692952289
    3     0.28310828715810     0.00000000000000    -0.25814449853621     0.28310828715810
    4     0.00000000000000    -0.01335496832388     0.00000000000000     0.00000000000000
    5    -0.28329571402955     0.00000000000000     0.00125859984679     0.02515121549334
    6    -0.27032918331632     0.00000000000000    -0.02515121549334    -0.01277910384178
    7     0.00000000000000    -0.44550508817525     0.00000000000000     0.00000000000000
    8    -0.02515121549334     0.00000000000000    -0.02857306411366     0.28329571402955
    9    -0.01277910384178     0.00000000000000     0.28329571402955    -0.27032918331632



  ==> DirectJK: Integral-Direct J/K Matrices <==

    J tasked:                  Yes
    K tasked:                  Yes
    wK tasked:                  No
    Integrals threads:           4
    Screening Type:           CSAM
    Screening Cutoff:        1E-08
    Incremental Fock:           No


   ==> Coupled-Perturbed RHF Solver <==

    Maxiter             =         100
    Convergence         =   1.000E-06
    Number of equations =           9
   -----------------------------------------------------
     Iter   Residual RMS      Max RMS  Remain  Time [s]
   -----------------------------------------------------
    Guess      1.844e+00    1.901e+00       9         0
        1      4.365e-01    6.597e-01       9         0
        2      1.139e-01    1.447e-01       9         0
        3      3.441e-02    5.094e-02       9         0
        4      5.649e-03    9.914e-03       9         1
        5      8.992e-04    1.411e-03       9         1
        6      2.068e-04    3.233e-04       9         1
        7      3.551e-05    6.446e-05       9         1
        8      5.245e-06    1.143e-05       7         1
        9      1.249e-06    2.585e-06       4         1
       10      2.946e-07    4.313e-07       0         1
   -----------------------------------------------------

    Solver has converged.

Nuclear
  ## Nuclear Hessian (Symmetry 0) ##
  Irrep: 1 Size: 9 x 9

                 1                   2                   3                   4                   5

    1    -2.37095538042277     0.00000000000000     0.00000000000000     1.18547769021138     0.00000000000000
    2     0.00000000000000     2.40184943875782     0.00000000000000     0.00000000000000    -1.20092471937891
    3     0.00000000000000     0.00000000000000    -0.03089405833505     0.00000000000000     1.67097695639694
    4     1.18547769021138     0.00000000000000     0.00000000000000    -1.21917691053771     0.00000000000000
    5     0.00000000000000    -1.20092471937891     1.67097695639694     0.00000000000000     1.26832316003157
    6     0.00000000000000     1.67097695639694     0.01544702916753     0.00000000000000    -1.67097695639694
    7     1.18547769021138     0.00000000000000     0.00000000000000     0.03369922032633     0.00000000000000
    8     0.00000000000000    -1.20092471937891    -1.67097695639694     0.00000000000000    -0.06739844065266
    9     0.00000000000000    -1.67097695639694     0.01544702916753     0.00000000000000     0.00000000000000

                 6                   7                   8                   9

    1     0.00000000000000     1.18547769021138     0.00000000000000     0.00000000000000
    2     1.67097695639694     0.00000000000000    -1.20092471937891    -1.67097695639694
    3     0.01544702916753     0.00000000000000    -1.67097695639694     0.01544702916753
    4     0.00000000000000     0.03369922032633     0.00000000000000     0.00000000000000
    5    -1.67097695639694     0.00000000000000    -0.06739844065266     0.00000000000000
    6    -0.04914624949386     0.00000000000000     0.00000000000000     0.03369922032633
    7     0.00000000000000    -1.21917691053771     0.00000000000000     0.00000000000000
    8     0.00000000000000     0.00000000000000     1.26832316003157     1.67097695639694
    9     0.03369922032633     0.00000000000000     1.67097695639694    -0.04914624949386



Kinetic
  ## Kinetic Hessian (Symmetry 0) ##
  Irrep: 1 Size: 9 x 9

                 1                   2                   3                   4                   5

    1    -1.22602406839129     0.00000000000000     0.00000000000000     0.61301203419566     0.00000000000000
    2     0.00000000000000     0.27536377943475     0.00000000000000     0.00000000000000    -0.13768188971737
    3     0.00000000000000     0.00000000000000    -0.57282679114762     0.00000000000000     0.47877880586604
    4     0.61301203419566     0.00000000000000     0.00000000000000    -0.61121005509436     0.00000000000000
    5     0.00000000000000    -0.13768188971737     0.47877880586604     0.00000000000000     0.13222573192792
    6     0.00000000000000     0.47877880586604     0.28641339557382     0.00000000000000    -0.47877880586604
    7     0.61301203419566     0.00000000000000     0.00000000000000    -0.00180197910129     0.00000000000000
    8     0.00000000000000    -0.13768188971737    -0.47877880586604     0.00000000000000     0.00545615778946
    9     0.00000000000000    -0.47877880586604     0.28641339557382     0.00000000000000    -0.00000000000000

                 6                   7                   8                   9

    1     0.00000000000000     0.61301203419566     0.00000000000000     0.00000000000000
    2     0.47877880586604     0.00000000000000    -0.13768188971737    -0.47877880586604
    3     0.28641339557382     0.00000000000000    -0.47877880586604     0.28641339557382
    4     0.00000000000000    -0.00180197910129     0.00000000000000     0.00000000000000
    5    -0.47877880586604     0.00000000000000     0.00545615778946    -0.00000000000000
    6    -0.28460849652818     0.00000000000000    -0.00000000000000    -0.00180489904563
    7     0.00000000000000    -0.61121005509436     0.00000000000000     0.00000000000000
    8    -0.00000000000000     0.00000000000000     0.13222573192792     0.47877880586604
    9    -0.00180489904563     0.00000000000000     0.47877880586604    -0.28460849652818



Potential
  ## Potential Hessian (Symmetry 0) ##
  Irrep: 1 Size: 9 x 9

                 1                   2                   3                   4                   5

    1    10.69372146260132     0.00000000000000     0.00000000000000    -5.34686073130105     0.00000000000000
    2     0.00000000000000    -0.38785773271099    -0.00000000000000     0.00000000000000     0.19392886635571
    3     0.00000000000000    -0.00000000000000     5.78170800429497     0.00000000000000    -3.63888868138476
    4    -5.34686073130105     0.00000000000000     0.00000000000000     5.34714288458204     0.00000000000000
    5     0.00000000000000     0.19392886635571    -3.63888868138476     0.00000000000000    -0.19671738218953
    6     0.00000000000000    -3.68370861300545    -2.89085400214689     0.00000000000000     3.66129864719511
    7    -5.34686073130105     0.00000000000000     0.00000000000000    -0.00028215328098     0.00000000000000
    8     0.00000000000000     0.19392886635571     3.63888868138476     0.00000000000000     0.00278851583381
    9     0.00000000000000     3.68370861300545    -2.89085400214689     0.00000000000000    -0.02240996581034

                 6                   7                   8                   9

    1     0.00000000000000    -5.34686073130105     0.00000000000000     0.00000000000000
    2    -3.68370861300545     0.00000000000000     0.19392886635571     3.68370861300545
    3    -2.89085400214689     0.00000000000000     3.63888868138476    -2.89085400214689
    4     0.00000000000000    -0.00028215328098     0.00000000000000     0.00000000000000
    5     3.66129864719511     0.00000000000000     0.00278851583381    -0.02240996581034
    6     2.87008927172288     0.00000000000000     0.02240996581034     0.02076473042401
    7     0.00000000000000     5.34714288458204     0.00000000000000     0.00000000000000
    8     0.02240996581034     0.00000000000000    -0.19671738218953    -3.66129864719511
    9     0.02076473042401     0.00000000000000    -3.66129864719511     2.87008927172288



Overlap
  ## Overlap Hessian (Symmetry 0) ##
  Irrep: 1 Size: 9 x 9

                 1                   2                   3                   4                   5

    1    -0.72819764641975     0.00000000000000     0.00000000000000     0.36409882320988     0.00000000000000
    2     0.00000000000000    -0.35059349183541     0.00000000000000     0.00000000000000     0.17529674591759
    3     0.00000000000000     0.00000000000000    -0.54744126482733     0.00000000000000     0.12745459472180
    4     0.36409882320988     0.00000000000000     0.00000000000000    -0.35952722202235     0.00000000000000
    5     0.00000000000000     0.17529674591759     0.12745459472180     0.00000000000000    -0.17714882761670
    6     0.00000000000000     0.12745459472180     0.27372063241343     0.00000000000000    -0.12745459472180
    7     0.36409882320988     0.00000000000000     0.00000000000000    -0.00457160118752     0.00000000000000
    8     0.00000000000000     0.17529674591759    -0.12745459472180     0.00000000000000     0.00185208169911
    9     0.00000000000000    -0.12745459472180     0.27372063241343     0.00000000000000     0.00000000000000

                 6                   7                   8                   9

    1     0.00000000000000     0.36409882320988     0.00000000000000     0.00000000000000
    2     0.12745459472180     0.00000000000000     0.17529674591759    -0.12745459472180
    3     0.27372063241343     0.00000000000000    -0.12745459472180     0.27372063241343
    4     0.00000000000000    -0.00457160118752     0.00000000000000     0.00000000000000
    5    -0.12745459472180     0.00000000000000     0.00185208169911     0.00000000000000
    6    -0.26903764914234     0.00000000000000    -0.00000000000000    -0.00468298327109
    7     0.00000000000000    -0.35952722202235     0.00000000000000     0.00000000000000
    8    -0.00000000000000     0.00000000000000    -0.17714882761670     0.12745459472180
    9    -0.00468298327109     0.00000000000000     0.12745459472180    -0.26903764914234



Coulomb
  ## Coulomb Hessian (Symmetry 0) ##
  Irrep: 1 Size: 9 x 9

                 1                   2                   3                   4                   5

    1    -7.25384721861540     0.00000000000000     0.00000000000000     3.62692360930766     0.00000000000000
    2     0.00000000000000    -1.89483653611285    -0.00000000000000     0.00000000000000     0.94741826805638
    3     0.00000000000000    -0.00000000000000    -4.99579997718153     0.00000000000000     1.71510043523034
    4     3.62692360930766     0.00000000000000     0.00000000000000    -3.59894732344597     0.00000000000000
    5     0.00000000000000     0.94741826805638     1.71510043523034     0.00000000000000    -0.95537112011449
    6     0.00000000000000     1.69112184732790     2.49789998859072     0.00000000000000    -1.70311114127912
    7     3.62692360930766     0.00000000000000     0.00000000000000    -0.02797628586169     0.00000000000000
    8     0.00000000000000     0.94741826805638    -1.71510043523034     0.00000000000000     0.00795285205811
    9     0.00000000000000    -1.69112184732790     2.49789998859072     0.00000000000000    -0.01198929395122

                 6                   7                   8                   9

    1     0.00000000000000     3.62692360930766     0.00000000000000     0.00000000000000
    2     1.69112184732790     0.00000000000000     0.94741826805638    -1.69112184732790
    3     2.49789998859072     0.00000000000000    -1.71510043523034     2.49789998859072
    4     0.00000000000000    -0.02797628586169     0.00000000000000     0.00000000000000
    5    -1.70311114127912     0.00000000000000     0.00795285205811    -0.01198929395122
    6    -2.46594245347661     0.00000000000000     0.01198929395122    -0.03195753511411
    7     0.00000000000000    -3.59894732344597     0.00000000000000     0.00000000000000
    8     0.01198929395122     0.00000000000000    -0.95537112011450     1.70311114127912
    9    -0.03195753511411     0.00000000000000     1.70311114127912    -2.46594245347661



Exchange
  ## Exchange Hessian (Symmetry 0) ##
  Irrep: 1 Size: 9 x 9

                 1                   2                   3                   4                   5

    1     0.91772011299829    -0.00000000000000    -0.00000000000000    -0.45886005649913    -0.00000000000000
    2    -0.00000000000000     0.05462892853377     0.00000000000000    -0.00000000000000    -0.02731446426688
    3    -0.00000000000000     0.00000000000000     0.56621657431623    -0.00000000000000    -0.25814449853621
    4    -0.45886005649913    -0.00000000000000    -0.00000000000000     0.44550508817525    -0.00000000000000
    5    -0.00000000000000    -0.02731446426688    -0.25814449853621    -0.00000000000000     0.02857306411367
    6    -0.00000000000000    -0.30844692952290    -0.28310828715810    -0.00000000000000     0.28329571402955
    7    -0.45886005649913    -0.00000000000000    -0.00000000000000     0.01335496832388    -0.00000000000000
    8    -0.00000000000000    -0.02731446426687     0.25814449853621    -0.00000000000000    -0.00125859984679
    9    -0.00000000000000     0.30844692952289    -0.28310828715810    -0.00000000000000    -0.02515121549334

                 6                   7                   8                   9

    1    -0.00000000000000    -0.45886005649913    -0.00000000000000    -0.00000000000000
    2    -0.30844692952290    -0.00000000000000    -0.02731446426687     0.30844692952289
    3    -0.28310828715810    -0.00000000000000     0.25814449853621    -0.28310828715810
    4    -0.00000000000000     0.01335496832388    -0.00000000000000    -0.00000000000000
    5     0.28329571402955    -0.00000000000000    -0.00125859984679    -0.02515121549334
    6     0.27032918331632    -0.00000000000000     0.02515121549334     0.01277910384178
    7    -0.00000000000000     0.44550508817525    -0.00000000000000    -0.00000000000000
    8     0.02515121549334    -0.00000000000000     0.02857306411366    -0.28329571402955
    9     0.01277910384178    -0.00000000000000    -0.28329571402955     0.27032918331632



Response
  ## RHF Response (Symmetry 0) ##
  Irrep: 1 Size: 9 x 9

                 1                   2                   3                   4                   5

    1     0.00841964690888     0.00000000000000     0.00000000000000    -0.00420982345443     0.00000000000000
    2     0.00000000000000     0.49455183996123     0.00000000000000     0.00000000000000    -0.24727591998061
    3     0.00000000000000     0.00000000000000     0.19816806130014     0.00000000000000     0.04103702432916
    4    -0.00420982345443     0.00000000000000     0.00000000000000     0.02291228767954     0.00000000000000
    5     0.00000000000000    -0.24727591998061     0.04103702432916     0.00000000000000     0.21580464197608
    6     0.00000000000000     0.21717490971747    -0.09908403065007     0.00000000000000    -0.12910596702332
    7    -0.00420982345443     0.00000000000000     0.00000000000000    -0.01870246422510     0.00000000000000
    8     0.00000000000000    -0.24727591998061    -0.04103702432916     0.00000000000000     0.03147127800454
    9     0.00000000000000    -0.21717490971747    -0.09908403065007     0.00000000000000     0.08806894269415

                 6                   7                   8                   9

    1     0.00000000000000    -0.00420982345443     0.00000000000000     0.00000000000000
    2     0.21717490971747     0.00000000000000    -0.24727591998061    -0.21717490971747
    3    -0.09908403065007     0.00000000000000    -0.04103702432916    -0.09908403065007
    4     0.00000000000000    -0.01870246422510     0.00000000000000     0.00000000000000
    5    -0.12910596702332     0.00000000000000     0.03147127800454     0.08806894269415
    6     0.11228166625335     0.00000000000000    -0.08806894269415    -0.01319763560328
    7     0.00000000000000     0.02291228767954     0.00000000000000     0.00000000000000
    8    -0.08806894269415     0.00000000000000     0.21580464197607     0.12910596702331
    9    -0.01319763560328     0.00000000000000     0.12910596702331     0.11228166625335



  ## Total Hessian (Symmetry 0) ##
  Irrep: 1 Size: 9 x 9

                 1                   2                   3                   4                   5

    1     0.04083690865928     0.00000000000000     0.00000000000000    -0.02041845433004     0.00000000000000
    2     0.00000000000000     0.59310622602833    -0.00000000000000     0.00000000000000    -0.29655311301409
    3     0.00000000000000    -0.00000000000000     0.39913054841981     0.00000000000000     0.13631463662331
    4    -0.02041845433004     0.00000000000000     0.00000000000000     0.02669874933643     0.00000000000000
    5     0.00000000000000    -0.29655311301409     0.13631463662331     0.00000000000000     0.31568926812851
    6     0.00000000000000     0.19335157150181    -0.19956527420957     0.00000000000000    -0.16483310406257
    7    -0.02041845433004     0.00000000000000     0.00000000000000    -0.00628029500638     0.00000000000000
    8     0.00000000000000    -0.29655311301408    -0.13631463662331     0.00000000000000    -0.01913615511442
    9     0.00000000000000    -0.19335157150181    -0.19956527420956     0.00000000000000     0.02851846743925

                 6                   7                   8                   9

    1     0.00000000000000    -0.02041845433004     0.00000000000000     0.00000000000000
    2     0.19335157150181     0.00000000000000    -0.29655311301408    -0.19335157150181
    3    -0.19956527420957     0.00000000000000    -0.13631463662331    -0.19956527420956
    4     0.00000000000000    -0.00628029500638     0.00000000000000     0.00000000000000
    5    -0.16483310406257     0.00000000000000    -0.01913615511442     0.02851846743925
    6     0.18396527265156     0.00000000000000    -0.02851846743925     0.01560000155801
    7     0.00000000000000     0.02669874933644     0.00000000000000     0.00000000000000
    8    -0.02851846743925     0.00000000000000     0.31568926812850     0.16483310406257
    9     0.01560000155801     0.00000000000000     0.16483310406257     0.18396527265156




*** tstop() called on Barrys-MacBook-Pro.local at Mon May  6 13:55:06 2024
Module time:
	user time   =       1.84 seconds =       0.03 minutes
	system time =       0.18 seconds =       0.00 minutes
	total time  =          1 seconds =       0.02 minutes
Total time:
	user time   =      51.38 seconds =       0.86 minutes
	system time =       2.69 seconds =       0.04 minutes
	total time  =        109 seconds =       1.82 minutes


  ==> Harmonic Vibrational Analysis <==

  non-mass-weighted Hessian:       Symmetric? True   Hermitian? True   Lin Dep Dim?  0 (0)
  projection of translations (True) and rotations (False) removed 3 degrees of freedom (6)
  total projector:                 Symmetric? True   Hermitian? True   Lin Dep Dim?  3 (3)
  mass-weighted Hessian:           Symmetric? True   Hermitian? True   Lin Dep Dim?  0 (0)
  pre-proj  low-frequency mode:    0.0000i [cm^-1]
  pre-proj  low-frequency mode:    0.0005  [cm^-1]
  pre-proj  low-frequency mode:    0.0010  [cm^-1]
  pre-proj  low-frequency mode:  776.4184  [cm^-1]
  pre-proj  low-frequency mode:  885.4424  [cm^-1]
  pre-proj  low-frequency mode:  929.8882  [cm^-1]
  pre-proj  all modes:['0.0011i' '0.0005' '0.0010' '776.4184' '885.4424' '929.8882' '1810.3498'
 '3375.4181' '3519.3380']
  projected mass-weighted Hessian: Symmetric? True   Hermitian? True   Lin Dep Dim?  3 (3)
  post-proj low-frequency mode:    0.0000i [cm^-1] (TR)
  post-proj low-frequency mode:    0.0000i [cm^-1] (TR)
  post-proj low-frequency mode:    0.0001  [cm^-1] (TR)
  post-proj low-frequency mode:  776.4184  [cm^-1] (V)
  post-proj low-frequency mode:  885.4424  [cm^-1] (V)
  post-proj low-frequency mode:  929.8882  [cm^-1] (V)
  post-proj  all modes:['0.0000i' '0.0000i' '0.0001' '776.4184' '885.4424' '929.8882' '1810.3498'
 '3375.4181' '3519.3380']

  Note that "Vibration"s include 3 un-projected rotation-like modes.
  Vibration                       4                   5                   6           
  Freq [cm^-1]                 776.4184            885.4424            929.8882       
  Irrep                           B1                  B2                  A2          
  Reduced mass [u]              1.1259              1.0420              1.0078        
  Force const [mDyne/A]         0.3999              0.4813              0.5134        
  Turning point v=0 [a0]        0.3711              0.3612              0.3584        
  RMS dev v=0 [a0 u^1/2]        0.2785              0.2607              0.2544        
  IR activ [km/mol]            288.8753            89.2358              0.0000        
  Char temp [K]               1117.0933           1273.9545           1337.9021       
  ----------------------------------------------------------------------------------
      1   O               -0.09 -0.00  0.00   -0.00 -0.05 -0.00    0.00 -0.00  0.00   
      2   H                0.70 -0.00 -0.00   -0.00  0.38  0.60    0.71  0.00  0.00   
      3   H                0.70 -0.00  0.00    0.00  0.38 -0.60   -0.71  0.00 -0.00   

  Vibration                       7                   8                   9           
  Freq [cm^-1]                1810.3498           3375.4181           3519.3380       
  Irrep                           A1                  A1                  B2          
  Reduced mass [u]              1.0849              1.0431              1.0861        
  Force const [mDyne/A]         2.0950              7.0019              7.9256        
  Turning point v=0 [a0]        0.2476              0.1849              0.1775        
  RMS dev v=0 [a0 u^1/2]        0.1824              0.1335              0.1308        
  IR activ [km/mol]            86.8948             15.7468             67.1264        
  Char temp [K]               2604.6903           4856.4751           5063.5439       
  ----------------------------------------------------------------------------------
      1   O               -0.00  0.00 -0.07   -0.00  0.00  0.05   -0.00 -0.07  0.00   
      2   H               -0.00  0.42  0.57    0.00  0.59 -0.38   -0.00  0.57 -0.41   
      3   H                0.00 -0.42  0.57   -0.00 -0.59 -0.38    0.00  0.57  0.41   

  ==> Thermochemistry Components <==

  Entropy, S
    Electronic S                             0.000 [cal/(mol K)]        0.000 [J/(mol K)]       0.00000000 [mEh/K] (multiplicity = 1)
    Translational S                         34.608 [cal/(mol K)]      144.801 [J/(mol K)]       0.05515177 [mEh/K] (mol. weight = 18.0106 [u], P = 101325.00 [Pa])
    Rotational S                            10.653 [cal/(mol K)]       44.571 [J/(mol K)]       0.01697626 [mEh/K] (symmetry no. = 2)
    Vibrational S                            0.502 [cal/(mol K)]        2.102 [J/(mol K)]       0.00080060 [mEh/K]
  Total S                                   45.763 [cal/(mol K)]      191.474 [J/(mol K)]       0.07292863 [mEh/K]
  Correction S                               0.000 [cal/(mol K)]        0.000 [J/(mol K)]       0.00000000 [mEh/K]

  Constant volume heat capacity, Cv
    Electronic Cv                            0.000 [cal/(mol K)]        0.000 [J/(mol K)]       0.00000000 [mEh/K]
    Translational Cv                         2.981 [cal/(mol K)]       12.472 [J/(mol K)]       0.00475022 [mEh/K]
    Rotational Cv                            2.981 [cal/(mol K)]       12.472 [J/(mol K)]       0.00475022 [mEh/K]
    Vibrational Cv                           1.696 [cal/(mol K)]        7.094 [J/(mol K)]       0.00270204 [mEh/K]
  Total Cv                                   7.657 [cal/(mol K)]       32.038 [J/(mol K)]       0.01220248 [mEh/K]
  Correction Cv                              0.000 [cal/(mol K)]        0.000 [J/(mol K)]       0.00000000 [mEh/K]

  Constant pressure heat capacity, Cp
    Electronic Cp                            0.000 [cal/(mol K)]        0.000 [J/(mol K)]       0.00000000 [mEh/K]
    Translational Cp                         4.968 [cal/(mol K)]       20.786 [J/(mol K)]       0.00791703 [mEh/K]
    Rotational Cp                            2.981 [cal/(mol K)]       12.472 [J/(mol K)]       0.00475022 [mEh/K]
    Vibrational Cp                           1.696 [cal/(mol K)]        7.094 [J/(mol K)]       0.00270204 [mEh/K]
  Total Cp                                   9.644 [cal/(mol K)]       40.352 [J/(mol K)]       0.01536929 [mEh/K]
  Correction Cp                              0.000 [cal/(mol K)]        0.000 [J/(mol K)]       0.00000000 [mEh/K]

  ==> Thermochemistry Energy Analysis <==

  Raw electronic energy, E_e
  Total E_e, Electronic energy at well bottom                                           -76.02013978 [Eh]

  Zero-point vibrational energy, ZPVE = Sum_i omega_i / 2,  E_0 = E_e + ZPVE
    Vibrational ZPVE                        16.150 [kcal/mol]       67.570 [kJ/mol]       0.02573613 [Eh]        5648.427 [cm^-1]
  Correction ZPVE to E_e                    16.150 [kcal/mol]       67.570 [kJ/mol]       0.02573613 [Eh]        5648.427 [cm^-1]
  Total E_0, Enthalpy at 0 [K]                                                          -75.99440365 [Eh]
  *** Absolute enthalpy, not an enthalpy of formation ***

  Thermal (internal) energy, E (includes ZPVE and finite-temperature corrections)
    Electronic contrib to E beyond E_e       0.000 [kcal/mol]        0.000 [kJ/mol]       0.00000000 [Eh]
    Translational contrib to E               0.889 [kcal/mol]        3.718 [kJ/mol]       0.00141628 [Eh]
    Rotational contrib to E                  0.889 [kcal/mol]        3.718 [kJ/mol]       0.00141628 [Eh]
    Vibrational contrib to E                16.270 [kcal/mol]       68.074 [kJ/mol]       0.02592819 [Eh]
  Correction E                              18.048 [kcal/mol]       75.511 [kJ/mol]       0.02876075 [Eh]
  Total E, Thermal (internal) energy at  298.15 [K]                                     -75.99137903 [Eh]

  Enthalpy, H_trans = E_trans + k_B * T = E_trans + P * V
    Electronic contrib to H beyond E_e       0.000 [kcal/mol]        0.000 [kJ/mol]       0.00000000 [Eh]
    Translational contrib to H               1.481 [kcal/mol]        6.197 [kJ/mol]       0.00236046 [Eh]
    Rotational contrib to H                  0.889 [kcal/mol]        3.718 [kJ/mol]       0.00141628 [Eh]
    Vibrational contrib to H                16.270 [kcal/mol]       68.074 [kJ/mol]       0.02592819 [Eh]
  Correction H                              18.640 [kcal/mol]       77.990 [kJ/mol]       0.02970493 [Eh]
  Total H, Enthalpy at  298.15 [K]                                                      -75.99043485 [Eh]
  *** Absolute enthalpy, not an enthalpy of formation ***

  Gibbs free energy, G = H - T * S
    Electronic contrib to G beyond E_e       0.000 [kcal/mol]        0.000 [kJ/mol]       0.00000000 [Eh]
    Translational contrib to G              -8.837 [kcal/mol]      -36.975 [kJ/mol]      -0.01408304 [Eh]
    Rotational contrib to G                 -2.287 [kcal/mol]       -9.570 [kJ/mol]      -0.00364519 [Eh]
    Vibrational contrib to G                16.120 [kcal/mol]       67.448 [kJ/mol]       0.02568949 [Eh]
  Correction G                               4.996 [kcal/mol]       20.902 [kJ/mol]       0.00796126 [Eh]
  Total G, Gibbs energy at  298.15 [K]                                                  -76.01217852 [Eh]
  *** Absolute Gibbs energy, not a free energy of formation ***


    			-----------------------------------------

    			 OPTKING 3.0: for geometry optimizations 

    			     By R.A. King, Bethel University     

    			        with contributions from          

    			    A.V. Copan, J. Cayton, A. Heide      

    			-----------------------------------------

    
	                            ===> Fragment 1 <== 

	 Z (Atomic Numbers)          Masses                          Geom                  
	       8.000000            15.994915          0.00000000  0.00000000 -0.12130480   
	       1.000000             1.007825          0.00000000 -1.54797302  0.96259758   
	       1.000000             1.007825          0.00000000  1.54797302  0.96259758   

	 - Coordinate -           - BOHR/RAD -       - ANG/DEG -
	 R(1,2)           =         1.889726           1.000000
	 R(1,3)           =         1.889726           1.000000
	 B(2,1,3)         =         1.919862         110.000000


	        --- Internal Coordinate Step in ANG or DEG, aJ/ANG or AJ/DEG ---
	-------------------------------------------------------------------------------
	           Coordinate      Previous         Force          Change          New 
	           ----------      --------        ------          ------        ------
	               R(1,2)       1.00000       -0.44911       -0.06504       0.93496
	               R(1,3)       1.00000       -0.44911       -0.06504       0.93496
	             B(2,1,3)     110.00000       -0.00160       -4.42237     105.57763
	-------------------------------------------------------------------------------

	                                 ==> Convergence Check <==                                  
    
	Measures of convergence in internal coordinates in au.
    
	Criteria marked as inactive (o), active & met (*), and active & unmet ( ).

	----------------------------------------------------------------------------------------------
	   Step    Total Energy     Delta E     Max Force     RMS Force      Max Disp      RMS Disp   
	----------------------------------------------------------------------------------------------
	  Convergence Criteria     1.00e-06 *    3.00e-04 *             o    1.20e-03 *             o
	----------------------------------------------------------------------------------------------
	     1     -76.02013978   -7.60e+01      5.45e-02      4.61e-02 o    1.23e-01      1.10e-01 o  ~
	----------------------------------------------------------------------------------------------

Next Geometry in Ang 
	Fragment 1 (Ang)

	    O   0.0000000000   0.0000000000  -0.0587531963
	    H   0.0000000000  -0.7446096346   0.5066654332
	    H   0.0000000000   0.7446096346   0.5066654332


    Structure for next step:
    Molecular point group: c2v
    Full point group: C2v

    Geometry (in Angstrom), charge = 0, multiplicity = 1:

    O       
    H             1      length
    H             1      length      2       angle

    angle     =  105.5776286153
    length    =    0.9349554720


Scratch directory: /tmp/
gradient() will perform analytic gradient computation.
   => Libint2 <=

    Primary   basis highest AM E, G, H:  5, 4, 3
    Auxiliary basis highest AM E, G, H:  6, 5, 4
    Onebody   basis highest AM E, G, H:  6, 5, 4
    Solid Harmonics ordering:            Gaussian

*** tstart() called on Barrys-MacBook-Pro.local
*** at Mon May  6 13:55:06 2024

   => Loading Basis Set <=

    Name: CC-PVDZ
    Role: ORBITAL
    Keyword: BASIS
    atoms 1   entry O          line   198 file /Users/blink/psi4conda/share/psi4/basis/cc-pvdz.gbs 
    atoms 2-3 entry H          line    22 file /Users/blink/psi4conda/share/psi4/basis/cc-pvdz.gbs 


         ---------------------------------------------------------
                                   SCF
               by Justin Turney, Rob Parrish, Andy Simmonett
                          and Daniel G. A. Smith
                              RHF Reference
                        4 Threads,    953 MiB Core
         ---------------------------------------------------------

  ==> Geometry <==

    Molecular point group: c2v
    Full point group: C2v

    Geometry (in Angstrom), charge = 0, multiplicity = 1:

       Center              X                  Y                   Z               Mass       
    ------------   -----------------  -----------------  -----------------  -----------------
         O            0.000000000000     0.000000000000    -0.063278754284    15.994914619570
         H            0.000000000000    -0.744609634555     0.502139875298     1.007825032230
         H            0.000000000000     0.744609634555     0.502139875298     1.007825032230

  Running in c2v symmetry.

  Rotational constants: A =     29.45687  B =     15.08426  C =      9.97584 [cm^-1]
  Rotational constants: A = 883094.61911  B = 452214.78776  C = 299068.09890 [MHz]
  Nuclear repulsion =    9.411208852940106

  Charge       = 0
  Multiplicity = 1
  Electrons    = 10
  Nalpha       = 5
  Nbeta        = 5

  ==> Algorithm <==

  SCF Algorithm Type is DIRECT.
  DIIS enabled.
  MOM disabled.
  Fractional occupation disabled.
  Guess Type is READ.
  Energy threshold   = 1.00e-08
  Density threshold  = 1.00e-08
  Integral threshold = 1.00e-08

  ==> Primary Basis <==

  -AO BASIS SET INFORMATION:
    Name                   = CC-PVDZ
    Blend                  = CC-PVDZ
    Total number of shells = 12
    Number of primitives   = 32
    Number of AO           = 25
    Number of SO           = 24
    Maximum AM             = 2
    Spherical Harmonics    = TRUE

  -Contraction Scheme:
    Atom   Type   All Primitives // Shells:
   ------ ------ --------------------------
       1     O     17s 4p 1d // 3s 2p 1d 
       2     H     4s 1p // 2s 1p 
       3     H     4s 1p // 2s 1p 

   => Loading Basis Set <=

    Name: (CC-PVDZ AUX)
    Role: JKFIT
    Keyword: DF_BASIS_SCF
    atoms 1   entry O          line   221 file /Users/blink/psi4conda/share/psi4/basis/cc-pvdz-jkfit.gbs 
    atoms 2-3 entry H          line    51 file /Users/blink/psi4conda/share/psi4/basis/cc-pvdz-jkfit.gbs 

   => Loading Basis Set <=

    Name: CC-PVDZ
    Role: ORBITAL
    Keyword: BASIS
    atoms 1   entry O          line   198 file /Users/blink/psi4conda/share/psi4/basis/cc-pvdz.gbs 
    atoms 2-3 entry H          line    22 file /Users/blink/psi4conda/share/psi4/basis/cc-pvdz.gbs 

  Reading orbitals from file /tmp/H2O_constrainst_1.default.25345.180.npy, no projection.

  Starting with a DF guess...

  ==> Integral Setup <==

  DFHelper Memory: AOs need 0.001 GiB; user supplied 0.698 GiB. 
  Using in-core AOs.

  ==> MemDFJK: Density-Fitted J/K Matrices <==

    J tasked:                   Yes
    K tasked:                   Yes
    wK tasked:                   No
    OpenMP threads:               4
    Memory [MiB]:               715
    Algorithm:                 Core
    Schwarz Cutoff:           1E-08
    Mask sparsity (%):       0.0000
    Fitting Condition:        1E-10

   => Auxiliary Basis Set <=

  -AO BASIS SET INFORMATION:
    Name                   = (CC-PVDZ AUX)
    Blend                  = CC-PVDZ-JKFIT
    Total number of shells = 42
    Number of primitives   = 42
    Number of AO           = 131
    Number of SO           = 116
    Maximum AM             = 3
    Spherical Harmonics    = TRUE

  -Contraction Scheme:
    Atom   Type   All Primitives // Shells:
   ------ ------ --------------------------
       1     O     10s 7p 5d 2f // 10s 7p 5d 2f 
       2     H     4s 3p 2d // 4s 3p 2d 
       3     H     4s 3p 2d // 4s 3p 2d 

  Minimum eigenvalue in the overlap matrix is 3.1060978503E-02.
  Reciprocal condition number of the overlap matrix is 9.7909686285E-03.
    Using symmetric orthogonalization.

  ==> Pre-Iterations <==

  SCF Guess: Orbitals guess was supplied from a previous computation.

   -------------------------------------------------------
    Irrep   Nso     Nmo     Nalpha   Nbeta   Ndocc  Nsocc
   -------------------------------------------------------
     A1        11      11       3       3       3       0
     A2         2       2       0       0       0       0
     B1         4       4       1       1       1       0
     B2         7       7       1       1       1       0
   -------------------------------------------------------
    Total      24      24       5       5       5       0
   -------------------------------------------------------

  ==> Iterations <==

                           Total Energy        Delta E     RMS |[F,P]|

   @DF-RHF iter   0:   -76.11829912304533   -7.61183e+01   1.61075e-02 
   @DF-RHF iter   1:   -76.02612769398752    9.21714e-02   2.61284e-03 ADIIS/DIIS
   @DF-RHF iter   2:   -76.02662644838394   -4.98754e-04   1.30265e-03 ADIIS/DIIS
   @DF-RHF iter   3:   -76.02673280693602   -1.06359e-04   1.75854e-04 ADIIS/DIIS
   @DF-RHF iter   4:   -76.02673814300782   -5.33607e-06   5.14565e-05 DIIS
   @DF-RHF iter   5:   -76.02673863427700   -4.91269e-07   1.02366e-05 DIIS
   @DF-RHF iter   6:   -76.02673866329641   -2.90194e-08   1.95803e-06 DIIS
   @DF-RHF iter   7:   -76.02673866422001   -9.23592e-10   2.73372e-07 DIIS
   @DF-RHF iter   8:   -76.02673866423629   -1.62856e-11   4.28969e-08 DIIS
   @DF-RHF iter   9:   -76.02673866423659   -2.98428e-13   3.62562e-09 DIIS

  DF guess converged.

  ==> DirectJK: Integral-Direct J/K Matrices <==

    J tasked:                  Yes
    K tasked:                  Yes
    wK tasked:                  No
    Integrals threads:           4
    Screening Type:           CSAM
    Screening Cutoff:        1E-08
    Incremental Fock:           No

   @RHF iter  10:   -76.02675887128335   -7.60268e+01   1.16351e-05 DIIS
   @RHF iter  11:   -76.02675888267754   -1.13942e-08   1.88844e-06 DIIS
   @RHF iter  12:   -76.02675888303436   -3.56820e-10   3.50068e-07 DIIS
   @RHF iter  13:   -76.02675888304657   -1.22071e-11   9.41718e-08 DIIS
   @RHF iter  14:   -76.02675888304749   -9.23706e-13   3.99598e-08 DIIS
   @RHF iter  15:   -76.02675888304763   -1.42109e-13   3.59207e-09 DIIS
  Energy and wave function converged.


  ==> Post-Iterations <==

    Orbital Energies [Eh]
    ---------------------

    Doubly Occupied:                                                      

       1A1   -20.545889     2A1    -1.347492     1B2    -0.713571  
       3A1    -0.568516     1B1    -0.494472  

    Virtual:                                                              

       4A1     0.189469     2B2     0.259212     3B2     0.809666  
       5A1     0.870954     6A1     1.161004     2B1     1.200394  
       4B2     1.251150     7A1     1.451032     1A2     1.478784  
       3B1     1.685687     8A1     1.865361     5B2     1.953648  
       6B2     2.510064     9A1     2.545834     4B1     3.299639  
       2A2     3.365465    10A1     3.534454    11A1     3.900735  
       7B2     4.166447  

    Final Occupation by Irrep:
             A1    A2    B1    B2 
    DOCC [     3,    0,    1,    1 ]
    NA   [     3,    0,    1,    1 ]
    NB   [     3,    0,    1,    1 ]

  @RHF Final Energy:   -76.02675888304763

   => Energetics <=

    Nuclear Repulsion Energy =              9.4112088529401063
    One-Electron Energy =                -123.5360553063402165
    Two-Electron Energy =                  38.0980875703524760
    Total Energy =                        -76.0267588830476342

Computation Completed


Properties will be evaluated at   0.000000,   0.000000,   0.000000 [a0]

Properties computed using the SCF density matrix


 Multipole Moments:

 ------------------------------------------------------------------------------------
     Multipole            Electronic (a.u.)      Nuclear  (a.u.)        Total (a.u.)
 ------------------------------------------------------------------------------------

 L = 1.  Multiply by 2.5417464519 to convert [e a0] to [Debye]
 Dipole X            :          0.0000000            0.0000000            0.0000000
 Dipole Y            :          0.0000000            0.0000000            0.0000000
 Dipole Z            :         -0.1470933            0.9411776            0.7940843
 Magnitude           :                                                    0.7940843

 ------------------------------------------------------------------------------------

*** tstop() called on Barrys-MacBook-Pro.local at Mon May  6 13:55:06 2024
Module time:
	user time   =       1.34 seconds =       0.02 minutes
	system time =       0.07 seconds =       0.00 minutes
	total time  =          0 seconds =       0.00 minutes
Total time:
	user time   =      52.93 seconds =       0.88 minutes
	system time =       2.76 seconds =       0.05 minutes
	total time  =        109 seconds =       1.82 minutes

*** tstart() called on Barrys-MacBook-Pro.local
*** at Mon May  6 13:55:06 2024


         ------------------------------------------------------------
                                   SCF GRAD                          
                          Rob Parrish, Justin Turney,                
                       Andy Simmonett, and Alex Sokolov              
         ------------------------------------------------------------

  ==> Geometry <==

    Molecular point group: c2v
    Full point group: C2v

    Geometry (in Angstrom), charge = 0, multiplicity = 1:

       Center              X                  Y                   Z               Mass       
    ------------   -----------------  -----------------  -----------------  -----------------
         O            0.000000000000     0.000000000000    -0.063278754284    15.994914619570
         H            0.000000000000    -0.744609634555     0.502139875298     1.007825032230
         H            0.000000000000     0.744609634555     0.502139875298     1.007825032230

  Nuclear repulsion =    9.411208852940106

  ==> Basis Set <==

  -AO BASIS SET INFORMATION:
    Name                   = CC-PVDZ
    Blend                  = CC-PVDZ
    Total number of shells = 12
    Number of primitives   = 32
    Number of AO           = 25
    Number of SO           = 24
    Maximum AM             = 2
    Spherical Harmonics    = TRUE

  -Contraction Scheme:
    Atom   Type   All Primitives // Shells:
   ------ ------ --------------------------
       1     O     17s 4p 1d // 3s 2p 1d 
       2     H     4s 1p // 2s 1p 
       3     H     4s 1p // 2s 1p 

  ==> DirectJKGrad: Integral-Direct SCF Gradients <==

    Gradient:                    1
    J tasked:                  Yes
    K tasked:                  Yes
    wK tasked:                  No
    Integrals threads:           4
    Schwarz Cutoff:          1E-08


  -Nuclear Gradient:
     Atom            X                  Y                   Z
    ------   -----------------  -----------------  -----------------
       1        0.000000000000     0.000000000000     3.099699395946
       2        0.000000000000     2.167289620946    -1.549849697973
       3        0.000000000000    -2.167289620946    -1.549849697973


  -Core Hamiltonian Gradient:
     Atom            X                  Y                   Z
    ------   -----------------  -----------------  -----------------
       1        0.000000000000    -0.000000000000    -7.687306389019
       2        0.000000000000    -5.252227674464     3.843653194509
       3        0.000000000000     5.252227674464     3.843653194509


  -Overlap Gradient:
     Atom            X                  Y                   Z
    ------   -----------------  -----------------  -----------------
       1       -0.000000000000     0.000000000000     0.499920211623
       2       -0.000000000000     0.312527497021    -0.249960105812
       3       -0.000000000000    -0.312527497021    -0.249960105812


  -Coulomb Gradient:
     Atom            X                  Y                   Z
    ------   -----------------  -----------------  -----------------
       1        0.000000000000     0.000000000000     4.763417623686
       2        0.000000000000     3.223784175085    -2.381708811843
       3        0.000000000000    -3.223784175085    -2.381708811843


  -Exchange Gradient:
     Atom            X                  Y                   Z
    ------   -----------------  -----------------  -----------------
       1       -0.000000000000    -0.000000000000    -0.658140585154
       2       -0.000000000000    -0.441414537688     0.329070292577
       3       -0.000000000000     0.441414537688     0.329070292577


  -Total Gradient:
     Atom            X                  Y                   Z
    ------   -----------------  -----------------  -----------------
       1       -0.000000000000     0.000000000000     0.017590257083
       2       -0.000000000000     0.009959080900    -0.008795128541
       3        0.000000000000    -0.009959080900    -0.008795128541


*** tstop() called on Barrys-MacBook-Pro.local at Mon May  6 13:55:06 2024
Module time:
	user time   =       0.22 seconds =       0.00 minutes
	system time =       0.03 seconds =       0.00 minutes
	total time  =          0 seconds =       0.00 minutes
Total time:
	user time   =      53.16 seconds =       0.89 minutes
	system time =       2.79 seconds =       0.05 minutes
	total time  =        109 seconds =       1.82 minutes

    			-----------------------------------------

    			 OPTKING 3.0: for geometry optimizations 

    			     By R.A. King, Bethel University     

    			        with contributions from          

    			    A.V. Copan, J. Cayton, A. Heide      

    			-----------------------------------------

    
	                            ===> Fragment 1 <== 

	 Z (Atomic Numbers)          Masses                          Geom                  
	       8.000000            15.994915          0.00000000  0.00000000 -0.11957952   
	       1.000000             1.007825          0.00000000 -1.40710828  0.94890684   
	       1.000000             1.007825          0.00000000  1.40710828  0.94890684   

	 - Coordinate -           - BOHR/RAD -       - ANG/DEG -
	 R(1,2)           =         1.766810           0.934955
	 R(1,3)           =         1.766810           0.934955
	 B(2,1,3)         =         1.842677         105.577629


	        --- Internal Coordinate Step in ANG or DEG, aJ/ANG or AJ/DEG ---
	-------------------------------------------------------------------------------
	           Coordinate      Previous         Force          Change          New 
	           ----------      --------        ------          ------        ------
	               R(1,2)       0.93496        0.10917        0.01313       0.94808
	               R(1,3)       0.93496        0.10917        0.01313       0.94808
	             B(2,1,3)     105.57763       -0.00013       -0.71780     104.85983
	-------------------------------------------------------------------------------

	                                 ==> Convergence Check <==                                  
    
	Measures of convergence in internal coordinates in au.
    
	Criteria marked as inactive (o), active & met (*), and active & unmet ( ).

	----------------------------------------------------------------------------------------------
	   Step    Total Energy     Delta E     Max Force     RMS Force      Max Disp      RMS Disp   
	----------------------------------------------------------------------------------------------
	  Convergence Criteria     1.00e-06 *    3.00e-04 *             o    1.20e-03 *             o
	----------------------------------------------------------------------------------------------
	     2     -76.02675888   -6.62e-03      1.33e-02      1.09e-02 o    2.48e-02      2.15e-02 o  ~
	----------------------------------------------------------------------------------------------

Next Geometry in Ang 
	Fragment 1 (Ang)

	    O   0.0000000000   0.0000000000  -0.0717174428
	    H   0.0000000000  -0.7514590814   0.5063592196
	    H   0.0000000000   0.7514590814   0.5063592196


    Structure for next step:
    Molecular point group: c2v
    Full point group: C2v

    Geometry (in Angstrom), charge = 0, multiplicity = 1:

    O       
    H             1      length
    H             1      length      2       angle

    angle     =  104.8598254769
    length    =    0.9480840567


Scratch directory: /tmp/
gradient() will perform analytic gradient computation.
   => Libint2 <=

    Primary   basis highest AM E, G, H:  5, 4, 3
    Auxiliary basis highest AM E, G, H:  6, 5, 4
    Onebody   basis highest AM E, G, H:  6, 5, 4
    Solid Harmonics ordering:            Gaussian

*** tstart() called on Barrys-MacBook-Pro.local
*** at Mon May  6 13:55:06 2024

   => Loading Basis Set <=

    Name: CC-PVDZ
    Role: ORBITAL
    Keyword: BASIS
    atoms 1   entry O          line   198 file /Users/blink/psi4conda/share/psi4/basis/cc-pvdz.gbs 
    atoms 2-3 entry H          line    22 file /Users/blink/psi4conda/share/psi4/basis/cc-pvdz.gbs 


         ---------------------------------------------------------
                                   SCF
               by Justin Turney, Rob Parrish, Andy Simmonett
                          and Daniel G. A. Smith
                              RHF Reference
                        4 Threads,    953 MiB Core
         ---------------------------------------------------------

  ==> Geometry <==

    Molecular point group: c2v
    Full point group: C2v

    Geometry (in Angstrom), charge = 0, multiplicity = 1:

       Center              X                  Y                   Z               Mass       
    ------------   -----------------  -----------------  -----------------  -----------------
         O            0.000000000000     0.000000000000    -0.064695376425    15.994914619570
         H            0.000000000000    -0.751459081409     0.513381285989     1.007825032230
         H            0.000000000000     0.751459081409     0.513381285989     1.007825032230

  Running in c2v symmetry.

  Rotational constants: A =     28.18097  B =     14.81053  C =      9.70832 [cm^-1]
  Rotational constants: A = 844844.13258  B = 444008.60609  C = 291048.04173 [MHz]
  Nuclear repulsion =    9.282568914985994

  Charge       = 0
  Multiplicity = 1
  Electrons    = 10
  Nalpha       = 5
  Nbeta        = 5

  ==> Algorithm <==

[...]
	               R(1,2)       0.94589        0.00383        0.00047       0.94636
	               R(1,3)       0.94589        0.00383        0.00047       0.94636
	             B(2,1,3)     104.60250        0.00001        0.01423     104.61673
	-------------------------------------------------------------------------------

	                                 ==> Convergence Check <==                                  
    
	Measures of convergence in internal coordinates in au.
    
	Criteria marked as inactive (o), active & met (*), and active & unmet ( ).

	----------------------------------------------------------------------------------------------
	   Step    Total Energy     Delta E     Max Force     RMS Force      Max Disp      RMS Disp   
	----------------------------------------------------------------------------------------------
	  Convergence Criteria     1.00e-06 *    3.00e-04 *             o    1.20e-03 *             o
	----------------------------------------------------------------------------------------------
	     4     -76.02705316   -9.32e-06      4.65e-04      3.82e-04 o    8.84e-04 *    7.36e-04 o  ~
	----------------------------------------------------------------------------------------------

Next Geometry in Ang 
	Fragment 1 (Ang)

	    O   0.0000000000  -0.0000000000  -0.0648629538
	    H   0.0000000000  -0.7488678300   0.5137532418
	    H   0.0000000000   0.7488678300   0.5137532418


    Structure for next step:
    Molecular point group: c2v
    Full point group: C2v

    Geometry (in Angstrom), charge = 0, multiplicity = 1:

    O       
    H             1      length
    H             1      length      2       angle

    angle     =  104.6167313661
    length    =    0.9463613098


Scratch directory: /tmp/
gradient() will perform analytic gradient computation.
   => Libint2 <=

    Primary   basis highest AM E, G, H:  5, 4, 3
    Auxiliary basis highest AM E, G, H:  6, 5, 4
    Onebody   basis highest AM E, G, H:  6, 5, 4
    Solid Harmonics ordering:            Gaussian

*** tstart() called on Barrys-MacBook-Pro.local
*** at Mon May  6 13:55:07 2024

   => Loading Basis Set <=

    Name: CC-PVDZ
    Role: ORBITAL
    Keyword: BASIS
    atoms 1   entry O          line   198 file /Users/blink/psi4conda/share/psi4/basis/cc-pvdz.gbs 
    atoms 2-3 entry H          line    22 file /Users/blink/psi4conda/share/psi4/basis/cc-pvdz.gbs 


         ---------------------------------------------------------
                                   SCF
               by Justin Turney, Rob Parrish, Andy Simmonett
                          and Daniel G. A. Smith
                              RHF Reference
                        4 Threads,    953 MiB Core
         ---------------------------------------------------------

  ==> Geometry <==

    Molecular point group: c2v
    Full point group: C2v

    Geometry (in Angstrom), charge = 0, multiplicity = 1:

       Center              X                  Y                   Z               Mass       
    ------------   -----------------  -----------------  -----------------  -----------------
         O            0.000000000000     0.000000000000    -0.064755758219    15.994914619570
         H            0.000000000000    -0.748867829969     0.513860437432     1.007825032230
         H            0.000000000000     0.748867829969     0.513860437432     1.007825032230

  Running in c2v symmetry.

  Rotational constants: A =     28.12844  B =     14.91321  C =      9.74603 [cm^-1]
  Rotational constants: A = 843269.30983  B = 447086.66194  C = 292178.64612 [MHz]
  Nuclear repulsion =    9.300044199285534

  Charge       = 0
  Multiplicity = 1
  Electrons    = 10
  Nalpha       = 5
  Nbeta        = 5

  ==> Algorithm <==

  SCF Algorithm Type is DIRECT.
  DIIS enabled.
  MOM disabled.
  Fractional occupation disabled.
  Guess Type is READ.
  Energy threshold   = 1.00e-08
  Density threshold  = 1.00e-08
  Integral threshold = 1.00e-08

  ==> Primary Basis <==

  -AO BASIS SET INFORMATION:
    Name                   = CC-PVDZ
    Blend                  = CC-PVDZ
    Total number of shells = 12
    Number of primitives   = 32
    Number of AO           = 25
    Number of SO           = 24
    Maximum AM             = 2
    Spherical Harmonics    = TRUE

  -Contraction Scheme:
    Atom   Type   All Primitives // Shells:
   ------ ------ --------------------------
       1     O     17s 4p 1d // 3s 2p 1d 
       2     H     4s 1p // 2s 1p 
       3     H     4s 1p // 2s 1p 

   => Loading Basis Set <=

    Name: (CC-PVDZ AUX)
    Role: JKFIT
    Keyword: DF_BASIS_SCF
    atoms 1   entry O          line   221 file /Users/blink/psi4conda/share/psi4/basis/cc-pvdz-jkfit.gbs 
    atoms 2-3 entry H          line    51 file /Users/blink/psi4conda/share/psi4/basis/cc-pvdz-jkfit.gbs 

   => Loading Basis Set <=

    Name: CC-PVDZ
    Role: ORBITAL
    Keyword: BASIS
    atoms 1   entry O          line   198 file /Users/blink/psi4conda/share/psi4/basis/cc-pvdz.gbs 
    atoms 2-3 entry H          line    22 file /Users/blink/psi4conda/share/psi4/basis/cc-pvdz.gbs 

  Reading orbitals from file /tmp/H2O_constrainst_1.default.25345.180.npy, no projection.

  Starting with a DF guess...

  ==> Integral Setup <==

  DFHelper Memory: AOs need 0.001 GiB; user supplied 0.698 GiB. 
  Using in-core AOs.

  ==> MemDFJK: Density-Fitted J/K Matrices <==

    J tasked:                   Yes
    K tasked:                   Yes
    wK tasked:                   No
    OpenMP threads:               4
    Memory [MiB]:               715
    Algorithm:                 Core
    Schwarz Cutoff:           1E-08
    Mask sparsity (%):       0.0000
    Fitting Condition:        1E-10

   => Auxiliary Basis Set <=

  -AO BASIS SET INFORMATION:
    Name                   = (CC-PVDZ AUX)
    Blend                  = CC-PVDZ-JKFIT
    Total number of shells = 42
    Number of primitives   = 42
    Number of AO           = 131
    Number of SO           = 116
    Maximum AM             = 3
    Spherical Harmonics    = TRUE

  -Contraction Scheme:
    Atom   Type   All Primitives // Shells:
   ------ ------ --------------------------
       1     O     10s 7p 5d 2f // 10s 7p 5d 2f 
       2     H     4s 3p 2d // 4s 3p 2d 
       3     H     4s 3p 2d // 4s 3p 2d 

  Minimum eigenvalue in the overlap matrix is 3.1736088732E-02.
  Reciprocal condition number of the overlap matrix is 1.0036625320E-02.
    Using symmetric orthogonalization.

  ==> Pre-Iterations <==

  SCF Guess: Orbitals guess was supplied from a previous computation.

   -------------------------------------------------------
    Irrep   Nso     Nmo     Nalpha   Nbeta   Ndocc  Nsocc
   -------------------------------------------------------
     A1        11      11       3       3       3       0
     A2         2       2       0       0       0       0
     B1         4       4       1       1       1       0
     B2         7       7       1       1       1       0
   -------------------------------------------------------
    Total      24      24       5       5       5       0
   -------------------------------------------------------

  ==> Iterations <==

                           Total Energy        Delta E     RMS |[F,P]|

   @DF-RHF iter   0:   -76.02633880446675   -7.60263e+01   1.28456e-04 
   @DF-RHF iter   1:   -76.02703273377396   -6.93929e-04   1.96650e-05 DIIS
   @DF-RHF iter   2:   -76.02703276225984   -2.84859e-08   1.03047e-05 DIIS
   @DF-RHF iter   3:   -76.02703276892436   -6.66452e-09   1.35068e-06 DIIS
   @DF-RHF iter   4:   -76.02703276927886   -3.54504e-10   4.18729e-07 DIIS
   @DF-RHF iter   5:   -76.02703276931391   -3.50440e-11   8.90074e-08 DIIS
   @DF-RHF iter   6:   -76.02703276931616   -2.25953e-12   1.63254e-08 DIIS
   @DF-RHF iter   7:   -76.02703276931624   -7.10543e-14   2.35678e-09 DIIS

  DF guess converged.

  ==> DirectJK: Integral-Direct J/K Matrices <==

    J tasked:                  Yes
    K tasked:                  Yes
    wK tasked:                  No
    Integrals threads:           4
    Screening Type:           CSAM
    Screening Cutoff:        1E-08
    Incremental Fock:           No

   @RHF iter   8:   -76.02705348696685   -7.60271e+01   1.19103e-05 DIIS
   @RHF iter   9:   -76.02705349892970   -1.19629e-08   1.93206e-06 DIIS
   @RHF iter  10:   -76.02705349930395   -3.74243e-10   3.71932e-07 DIIS
   @RHF iter  11:   -76.02705349931730   -1.33582e-11   1.04700e-07 DIIS
   @RHF iter  12:   -76.02705349931841   -1.10845e-12   4.32718e-08 DIIS
   @RHF iter  13:   -76.02705349931855   -1.42109e-13   3.93332e-09 DIIS
  Energy and wave function converged.


  ==> Post-Iterations <==

    Orbital Energies [Eh]
    ---------------------

    Doubly Occupied:                                                      

       1A1   -20.548441     2A1    -1.342227     1B2    -0.705390  
       3A1    -0.568381     1B1    -0.493917  

    Virtual:                                                              

       4A1     0.187401     2B2     0.257799     3B2     0.797624  
       5A1     0.864294     6A1     1.162639     2B1     1.200401  
       4B2     1.252606     7A1     1.443915     1A2     1.478827  
       3B1     1.677501     8A1     1.865300     5B2     1.946484  
       6B2     2.479220     9A1     2.517984     4B1     3.294812  
       2A2     3.350145    10A1     3.524529    11A1     3.878847  
       7B2     4.159357  

    Final Occupation by Irrep:
             A1    A2    B1    B2 
    DOCC [     3,    0,    1,    1 ]
    NA   [     3,    0,    1,    1 ]
    NB   [     3,    0,    1,    1 ]

  @RHF Final Energy:   -76.02705349931855

   => Energetics <=

    Nuclear Repulsion Energy =              9.3000441992855336
    One-Electron Energy =                -123.3374835543789487
    Two-Electron Energy =                  38.0103858557748566
    Total Energy =                        -76.0270534993185549

Computation Completed


Properties will be evaluated at   0.000000,   0.000000,   0.000000 [a0]

Properties computed using the SCF density matrix


 Multipole Moments:

 ------------------------------------------------------------------------------------
     Multipole            Electronic (a.u.)      Nuclear  (a.u.)        Total (a.u.)
 ------------------------------------------------------------------------------------

 L = 1.  Multiply by 2.5417464519 to convert [e a0] to [Debye]
 Dipole X            :          0.0000000            0.0000000            0.0000000
 Dipole Y            :          0.0000000            0.0000000            0.0000000
 Dipole Z            :         -0.1588838            0.9631458            0.8042620
 Magnitude           :                                                    0.8042620

 ------------------------------------------------------------------------------------

*** tstop() called on Barrys-MacBook-Pro.local at Mon May  6 13:55:07 2024
Module time:
	user time   =       1.24 seconds =       0.02 minutes
	system time =       0.07 seconds =       0.00 minutes
	total time  =          0 seconds =       0.00 minutes
Total time:
	user time   =      57.75 seconds =       0.96 minutes
	system time =       3.04 seconds =       0.05 minutes
	total time  =        110 seconds =       1.83 minutes

*** tstart() called on Barrys-MacBook-Pro.local
*** at Mon May  6 13:55:07 2024


         ------------------------------------------------------------
                                   SCF GRAD                          
                          Rob Parrish, Justin Turney,                
                       Andy Simmonett, and Alex Sokolov              
         ------------------------------------------------------------

  ==> Geometry <==

    Molecular point group: c2v
    Full point group: C2v

    Geometry (in Angstrom), charge = 0, multiplicity = 1:

       Center              X                  Y                   Z               Mass       
    ------------   -----------------  -----------------  -----------------  -----------------
         O            0.000000000000     0.000000000000    -0.064755758219    15.994914619570
         H            0.000000000000    -0.748867829969     0.513860437432     1.007825032230
         H            0.000000000000     0.748867829969     0.513860437432     1.007825032230

  Nuclear repulsion =    9.300044199285534

  ==> Basis Set <==

  -AO BASIS SET INFORMATION:
    Name                   = CC-PVDZ
    Blend                  = CC-PVDZ
    Total number of shells = 12
    Number of primitives   = 32
    Number of AO           = 25
    Number of SO           = 24
    Maximum AM             = 2
    Spherical Harmonics    = TRUE

  -Contraction Scheme:
    Atom   Type   All Primitives // Shells:
   ------ ------ --------------------------
       1     O     17s 4p 1d // 3s 2p 1d 
       2     H     4s 1p // 2s 1p 
       3     H     4s 1p // 2s 1p 

  ==> DirectJKGrad: Integral-Direct SCF Gradients <==

    Gradient:                    1
    J tasked:                  Yes
    K tasked:                  Yes
    wK tasked:                  No
    Integrals threads:           4
    Schwarz Cutoff:          1E-08


  -Nuclear Gradient:
     Atom            X                  Y                   Z
    ------   -----------------  -----------------  -----------------
       1        0.000000000000     0.000000000000     3.058735360274
       2        0.000000000000     2.104201505727    -1.529367680137
       3        0.000000000000    -2.104201505727    -1.529367680137


  -Core Hamiltonian Gradient:
     Atom            X                  Y                   Z
    ------   -----------------  -----------------  -----------------
       1        0.000000000000    -0.000000000000    -7.679446513782
       2        0.000000000000    -5.132697460012     3.839723256891
       3        0.000000000000     5.132697460012     3.839723256891


  -Overlap Gradient:
     Atom            X                  Y                   Z
    ------   -----------------  -----------------  -----------------
       1       -0.000000000000    -0.000000000000     0.500016571586
       2       -0.000000000000     0.305852080319    -0.250008285793
       3       -0.000000000000    -0.305852080319    -0.250008285793


  -Coulomb Gradient:
     Atom            X                  Y                   Z
    ------   -----------------  -----------------  -----------------
       1        0.000000000000    -0.000000000000     4.780490832072
       2        0.000000000000     3.154027914019    -2.390245416036
       3        0.000000000000    -3.154027914019    -2.390245416036


  -Exchange Gradient:
     Atom            X                  Y                   Z
    ------   -----------------  -----------------  -----------------
       1       -0.000000000000     0.000000000000    -0.659888329778
       2       -0.000000000000    -0.431462107577     0.329944164889
       3       -0.000000000000     0.431462107577     0.329944164889


  -Total Gradient:
     Atom            X                  Y                   Z
    ------   -----------------  -----------------  -----------------
       1        0.000000000000     0.000000000000    -0.000092079628
       2        0.000000000000    -0.000078067525     0.000046039814
       3       -0.000000000000     0.000078067525     0.000046039814


*** tstop() called on Barrys-MacBook-Pro.local at Mon May  6 13:55:07 2024
Module time:
	user time   =       0.24 seconds =       0.00 minutes
	system time =       0.03 seconds =       0.00 minutes
	total time  =          0 seconds =       0.00 minutes
Total time:
	user time   =      58.00 seconds =       0.97 minutes
	system time =       3.07 seconds =       0.05 minutes
	total time  =        110 seconds =       1.83 minutes

    			-----------------------------------------

    			 OPTKING 3.0: for geometry optimizations 

    			     By R.A. King, Bethel University     

    			        with contributions from          

    			    A.V. Copan, J. Cayton, A. Heide      

    			-----------------------------------------

    
	                            ===> Fragment 1 <== 

	 Z (Atomic Numbers)          Masses                          Geom                  
	       8.000000            15.994915          0.00000000  0.00000000 -0.12237065   
	       1.000000             1.007825          0.00000000 -1.41515510  0.97105549   
	       1.000000             1.007825          0.00000000  1.41515510  0.97105549   

	 - Coordinate -           - BOHR/RAD -       - ANG/DEG -
	 R(1,2)           =         1.788364           0.946361
	 R(1,3)           =         1.788364           0.946361
	 B(2,1,3)         =         1.825906         104.616731


	        --- Internal Coordinate Step in ANG or DEG, aJ/ANG or AJ/DEG ---
	-------------------------------------------------------------------------------
	           Coordinate      Previous         Force          Change          New 
	           ----------      --------        ------          ------        ------
	               R(1,2)       0.94636       -0.00074       -0.00009       0.94627
	               R(1,3)       0.94636       -0.00074       -0.00009       0.94627
	             B(2,1,3)     104.61673       -0.00000       -0.00429     104.61244
	-------------------------------------------------------------------------------

	                                 ==> Convergence Check <==                                  
    
	Measures of convergence in internal coordinates in au.
    
	Criteria marked as inactive (o), active & met (*), and active & unmet ( ).

	----------------------------------------------------------------------------------------------
	   Step    Total Energy     Delta E     Max Force     RMS Force      Max Disp      RMS Disp   
	----------------------------------------------------------------------------------------------
	  Convergence Criteria     1.00e-06 *    3.00e-04 *             o    1.20e-03 *             o
	----------------------------------------------------------------------------------------------
	     5     -76.02705350   -3.39e-07 *    8.99e-05 *    7.43e-05 o    1.70e-04 *    1.46e-04 o  ~
	----------------------------------------------------------------------------------------------

Next Geometry in Ang 
	Fragment 1 (Ang)

	    O   0.0000000000   0.0000000000  -0.0647376735
	    H   0.0000000000  -0.7487748022   0.5138513951
	    H   0.0000000000   0.7487748022   0.5138513951


    Final optimized geometry and variables:
    Molecular point group: c2v
    Full point group: C2v

    Geometry (in Angstrom), charge = 0, multiplicity = 1:

    O       
    H             1      length
    H             1      length      2       angle

    angle     =  104.6167313661
    length    =    0.9463613098

    Molecular point group: c2v
    Full point group: C2v

    Geometry (in Angstrom), charge = 0, multiplicity = 1:

       Center              X                  Y                   Z               Mass       
    ------------   -----------------  -----------------  -----------------  -----------------
         O            0.000000000000     0.000000000000    -0.064755758219    15.994914619570
         H            0.000000000000    -0.748867829969     0.513860437432     1.007825032230
         H            0.000000000000     0.748867829969     0.513860437432     1.007825032230

        Interatomic Distances (Angstroms)

        Distance 1 to 2 0.946   
        Distance 1 to 3 0.946   
        Distance 2 to 3 1.498   


        Bond Angles (degrees)

        Angle 2-1-3:  104.617
        Angle 1-2-3:   37.692
        Angle 1-3-2:   37.692


    Molecular point group: c2v
    Full point group: C2v

    Geometry (in Angstrom), charge = 0, multiplicity = 1:

    O       
    H             1      length
    H             1      length      2       angle

    angle     =  104.6167313661
    length    =    0.9463613098


  Memory set to 953.674 MiB by Python driver.
