[Molden Format]

[FREQ]
        -732.0177328027
         472.3954469821
         649.6772363372
         706.7424059629
         732.8779585481
         886.4294115296
         903.0228509540
         930.6439225063
         962.8274820949
        1017.1893949761
        1040.5252741643
        1129.7559876028
        1180.0301222161
        1265.7127395649
        1400.8538609074
        1535.1450042269
        1544.1708530827
        1554.3793741189
        3102.5956563610
        3102.6628211408
        3175.1419223947
        3195.3604723727
        3236.3865624443
        3237.1672312252

[FR-COORD]
C          1.9658563895        0.4821229925       -1.2238251961
C          1.3031928811        0.0000000000        1.3378282589
C         -1.3031928811       -0.0000000000        1.3378282589
C         -1.9658563895       -0.4821229925       -1.2238251961
H          3.6353196748       -0.3494542917       -2.1243957423
H          1.3429791952        2.2300521942       -2.0953277068
H          2.6111105681       -0.4510948992        2.8623085114
H         -2.6111105681        0.4510948992        2.8623085114
H         -3.6353196748        0.3494542917       -2.1243957423
H         -1.3429791952       -2.2300521942       -2.0953277068

[FR-NORM-COORD]
vibration 1
           0.2000787573        0.0392213992        0.0796865627
           0.0369068661       -0.0219698039       -0.0737689473
          -0.0369068661        0.0219698039       -0.0737689473
          -0.2000787573       -0.0392213992        0.0796865627
           0.3501963102        0.2334594443        0.1965925739
          -0.2547796434       -0.2625101396       -0.1854688708
          -0.0253970153       -0.2312581102       -0.0815837351
           0.0253970153        0.2312581102       -0.0815837351
          -0.3501963102       -0.2334594443        0.1965925739
           0.2547796434        0.2625101396       -0.1854688708
vibration 2
           0.0767167484       -0.0848082878       -0.0205530421
          -0.0140208358        0.1792003173        0.0203875182
           0.0140208358       -0.1792003173        0.0203875182
          -0.0767167484        0.0848082878       -0.0205530421
           0.0928109175       -0.2608543774        0.1720913555
           0.1678123270       -0.1770049551       -0.2722357932
          -0.0106357984        0.4509497289        0.1021153028
           0.0106357984       -0.4509497289        0.1021153028
          -0.0928109175        0.2608543774        0.1720913555
          -0.1678123270        0.1770049551       -0.2722357932
vibration 3
          -0.0229507999       -0.0142602078        0.0163465845
           0.0298367991       -0.0464266690        0.0255362627
           0.0298367991       -0.0464266690       -0.0255362627
          -0.0229507999       -0.0142602078       -0.0163465845
           0.1646630644        0.3658475868        0.0115249856
          -0.3085929421       -0.0923552526        0.0650660519
           0.0619394638        0.4490959118        0.1438658952
           0.0619394638        0.4490959118       -0.1438658952
           0.1646630644        0.3658475868       -0.0115249856
          -0.3085929421       -0.0923552526       -0.0650660519
vibration 4
           0.0867177753        0.0483542006       -0.0251846231
          -0.0280851581       -0.0416714092       -0.0126647552
           0.0280851581        0.0416714092       -0.0126647552
          -0.0867177753       -0.0483542006       -0.0251846231
           0.1563449323        0.0560869383        0.0893789986
           0.4796682031        0.3325409263        0.2568246960
          -0.0900486437        0.1599960787        0.1044623683
           0.0900486437       -0.1599960787        0.1044623683
          -0.1563449323       -0.0560869383        0.0893789986
          -0.4796682031       -0.3325409263        0.2568246960
vibration 5
          -0.0947828036       -0.0273807920        0.0774800887
           0.1253430294        0.0377867773        0.1614507154
           0.1253430294        0.0377867773       -0.1614507154
          -0.0947828036       -0.0273807920       -0.0774800887
          -0.3887948310       -0.2158540465       -0.2913791839
           0.0051948930        0.1195421706        0.3064110079
           0.0197245643       -0.0275904083        0.2214650493
           0.0197245643       -0.0275904083       -0.2214650493
          -0.3887948310       -0.2158540465        0.2913791839
           0.0051948930        0.1195421706       -0.3064110079
vibration 6
          -0.0068066733       -0.0447416058       -0.0060019322
          -0.0207015633       -0.1033640183       -0.0083376762
           0.0207015633        0.1033640183       -0.0083376762
           0.0068066733        0.0447416058       -0.0060019322
           0.0813214356        0.2108438012       -0.0683946748
          -0.2641691108       -0.1261683640        0.0291612875
          -0.0569977269        0.5450652414        0.2099726479
           0.0569977269       -0.5450652414        0.2099726479
          -0.0813214356       -0.2108438012       -0.0683946748
           0.2641691108        0.1261683640        0.0291612875
vibration 7
           0.0425493871        0.0288068902       -0.0441073449
          -0.0467634681       -0.0642505294       -0.0278872994
          -0.0467634681       -0.0642505294        0.0278872994
           0.0425493871        0.0288068902        0.0441073449
          -0.1718414445       -0.2411076898       -0.1978449973
           0.2680859599        0.1935694330        0.1122142560
          -0.0460681743        0.4695595964        0.1302951268
          -0.0460681743        0.4695595964       -0.1302951268
          -0.1718414445       -0.2411076898        0.1978449973
           0.2680859599        0.1935694330       -0.1122142560
vibration 8
          -0.0919735334       -0.0967721512       -0.0145881957
           0.0036904435        0.0352721190       -0.0174701175
          -0.0036904435       -0.0352721190       -0.0174701175
           0.0919735334        0.0967721512       -0.0145881957
           0.3698298845        0.3900949545        0.3722276939
           0.0815642395        0.0351877750        0.1282831777
           0.0702469166       -0.0974859236       -0.1187980288
          -0.0702469166        0.0974859236       -0.1187980288
          -0.3698298845       -0.3900949545        0.3722276939
          -0.0815642395       -0.0351877750        0.1282831777
vibration 9
          -0.0625576259       -0.0727305418       -0.0446610187
           0.0101105613        0.0303717623       -0.0130551115
           0.0101105613        0.0303717623        0.0130551115
          -0.0625576259       -0.0727305418        0.0446610187
           0.2257839884        0.2206037178        0.2005359205
           0.3761779723        0.2858593606        0.3507199282
           0.0225162519       -0.0021043474       -0.0317288177
           0.0225162519       -0.0021043474        0.0317288177
           0.2257839884        0.2206037178       -0.2005359205
           0.3761779723        0.2858593606       -0.3507199282
vibration 10
          -0.0627888759        0.0701218636        0.0419150140
          -0.0156674990       -0.0830406191       -0.0355384237
           0.0156674990        0.0830406191       -0.0355384237
           0.0627888759       -0.0701218636        0.0419150140
          -0.0040028459       -0.2382019568        0.4254481946
           0.1505504387       -0.0451207250       -0.3430353882
           0.2133482351        0.1739371861       -0.1583377751
          -0.2133482351       -0.1739371861       -0.1583377751
           0.0040028459        0.2382019568        0.4254481946
          -0.1505504387        0.0451207250       -0.3430353882
vibration 11
          -0.0784464459        0.0409304422        0.0782168661
           0.0394339101       -0.0377337067       -0.0120251832
           0.0394339101       -0.0377337067        0.0120251832
          -0.0784464459        0.0409304422       -0.0782168661
          -0.0256593879       -0.2329163720        0.4178530255
           0.1669056145       -0.0144243710       -0.2063604552
           0.3232693537        0.2092777604       -0.1856595632
           0.3232693537        0.2092777604        0.1856595632
          -0.0256593879       -0.2329163720       -0.4178530255
           0.1669056145       -0.0144243710        0.2063604552
vibration 12
           0.0457236593       -0.0192750975       -0.0092312711
           0.0735721173       -0.0083028899        0.0379204230
          -0.0735721173        0.0083028899        0.0379204230
          -0.0457236593        0.0192750975       -0.0092312711
          -0.0059677300        0.0372650450       -0.1590089164
           0.0168539568        0.0433000955        0.1359271122
           0.5602498524        0.1669067728       -0.3185150131
          -0.5602498524       -0.1669067728       -0.3185150131
           0.0059677300       -0.0372650450       -0.1590089164
          -0.0168539568       -0.0433000955        0.1359271122
vibration 13
           0.0467781365       -0.0486918650        0.0971578436
          -0.0498291484        0.0439668509       -0.0703187616
          -0.0498291484        0.0439668509        0.0703187616
           0.0467781365       -0.0486918650       -0.0971578436
          -0.1070740215       -0.0196499590       -0.1856916978
          -0.1745706698        0.0033678704        0.3844986407
           0.3179725665        0.0725420215       -0.3815937209
           0.3179725665        0.0725420215        0.3815937209
          -0.1070740215       -0.0196499590        0.1856916978
          -0.1745706698        0.0033678704       -0.3844986407
vibration 14
           0.0078204042        0.0395130405       -0.1528967478
           0.0713075503       -0.0561865307        0.1760547281
          -0.0713075503        0.0561865307        0.1760547281
          -0.0078204042       -0.0395130405       -0.1528967478
           0.1983331551        0.2028123640       -0.0017289387
           0.1267567339       -0.0735284699       -0.5032322267
           0.0075360067       -0.1672570416        0.2292230610
          -0.0075360067        0.1672570416        0.2292230610
          -0.1983331551       -0.2028123640       -0.0017289387
          -0.1267567339        0.0735284699       -0.5032322267
vibration 15
           0.0157411677       -0.0036401165       -0.0497039800
          -0.0733319806       -0.0137065530        0.1514951092
          -0.0733319806       -0.0137065530       -0.1514951092
           0.0157411677       -0.0036401165        0.0497039800
           0.0429563049        0.2169104371       -0.2555809713
           0.2221994429       -0.0052351740       -0.2469749607
           0.4205681945       -0.0051314421       -0.2592965081
           0.4205681945       -0.0051314421        0.2592965081
           0.0429563049        0.2169104371        0.2555809713
           0.2221994429       -0.0052351740        0.2469749607
vibration 16
          -0.0274923844       -0.0222501793        0.0953906850
           0.0250528305        0.0059199725       -0.0407391821
          -0.0250528305       -0.0059199725       -0.0407391821
           0.0274923844        0.0222501793        0.0953906850
          -0.0823489471        0.3202229184       -0.3476614603
           0.3940582559       -0.0532518506       -0.3109238756
          -0.0289772229        0.0379738629        0.0078592540
           0.0289772229       -0.0379738629        0.0078592540
           0.0823489471       -0.3202229184       -0.3476614603
          -0.3940582559        0.0532518506       -0.3109238756
vibration 17
          -0.0340310797       -0.0286972267        0.1095467885
           0.0223365324        0.0059983779       -0.0797337725
           0.0223365324        0.0059983779        0.0797337725
          -0.0340310797       -0.0286972267       -0.1095467885
          -0.0855736016        0.3254831576       -0.3316879038
           0.3668038868       -0.0766753246       -0.3029091202
          -0.1419853141        0.0214634710        0.0552072972
          -0.1419853141        0.0214634710       -0.0552072972
          -0.0855736016        0.3254831576        0.3316879038
           0.3668038868       -0.0766753246        0.3029091202
vibration 18
          -0.0448074153        0.0059050324        0.0191434231
           0.3466987126        0.0070472714       -0.0887017735
          -0.3466987126       -0.0070472714       -0.0887017735
           0.0448074153       -0.0059050324        0.0191434231
          -0.0572966138       -0.2145738152        0.2086154475
           0.0058961208        0.0911731160        0.1774405803
          -0.1759535490        0.1016244812        0.4421633330
           0.1759535490       -0.1016244812        0.4421633330
           0.0572966138        0.2145738152        0.2086154475
          -0.0058961208       -0.0911731160        0.1774405803
vibration 19
          -0.0379635571        0.0075498001        0.0330462976
           0.0027379516       -0.0007431333        0.0009571334
          -0.0027379516        0.0007431333        0.0009571334
           0.0379635571       -0.0075498001        0.0330462976
           0.5378880191       -0.2781868265       -0.2889553081
          -0.0795425774        0.1786185234       -0.0779399520
          -0.0350071954        0.0148356157       -0.0379777678
           0.0350071954       -0.0148356157       -0.0379777678
          -0.5378880191        0.2781868265       -0.2889553081
           0.0795425774       -0.1786185234       -0.0779399520
vibration 20
          -0.0389400166        0.0084411611        0.0331704896
           0.0044225022       -0.0002510597        0.0013396788
           0.0044225022       -0.0002510597       -0.0013396788
          -0.0389400166        0.0084411611       -0.0331704896
           0.5390293453       -0.2793700677       -0.2886156346
          -0.0780512883        0.1687855466       -0.0737608834
          -0.0499839263        0.0130663864       -0.0519722450
          -0.0499839263        0.0130663864        0.0519722450
           0.5390293453       -0.2793700677        0.2886156346
          -0.0780512883        0.1687855466        0.0737608834
vibration 21
          -0.0027424056       -0.0033587420        0.0068458126
          -0.0359221200        0.0133586040       -0.0448273989
          -0.0359221200        0.0133586040        0.0448273989
          -0.0027424056       -0.0033587420       -0.0068458126
           0.0414512165       -0.0243591379       -0.0255552431
          -0.0230449578        0.0581511874       -0.0267491891
           0.4419656234       -0.1528586925        0.5197728377
           0.4419656234       -0.1528586925       -0.5197728377
           0.0414512165       -0.0243591379        0.0255552431
          -0.0230449578        0.0581511874        0.0267491891
vibration 22
          -0.0032771862       -0.0014963031        0.0053986217
          -0.0443977524        0.0131657926       -0.0460535609
           0.0443977524       -0.0131657926       -0.0460535609
           0.0032771862        0.0014963031        0.0053986217
           0.0363076042       -0.0155288719       -0.0229515252
          -0.0122158170        0.0224777275       -0.0102396329
           0.4486972664       -0.1547810578        0.5172625536
          -0.4486972664        0.1547810578        0.5172625536
          -0.0363076042        0.0155288719       -0.0229515252
           0.0122158170       -0.0224777275       -0.0102396329
vibration 23
           0.0301052020       -0.0547215335        0.0178663882
           0.0033677377       -0.0003951603        0.0022933703
           0.0033677377       -0.0003951603       -0.0022933703
           0.0301052020       -0.0547215335       -0.0178663882
          -0.1512729404        0.0700346270        0.0875808658
          -0.2149620784        0.5765270823       -0.2812466828
          -0.0323215393        0.0097033215       -0.0383901181
          -0.0323215393        0.0097033215        0.0383901181
          -0.1512729404        0.0700346270       -0.0875808658
          -0.2149620784        0.5765270823        0.2812466828
vibration 24
           0.0306173219       -0.0553261803        0.0166233317
           0.0011733681       -0.0005320411       -0.0000356228
          -0.0011733681        0.0005320411       -0.0000356228
          -0.0306173219        0.0553261803        0.0166233317
          -0.1548074914        0.0739420815        0.0923259361
          -0.2154074360        0.5768557787       -0.2800118715
          -0.0086726999        0.0050455411       -0.0098210738
           0.0086726999       -0.0050455411       -0.0098210738
           0.1548074914       -0.0739420815        0.0923259361
           0.2154074360       -0.5768557787       -0.2800118715
