14
Optimization step: 0. E: -155.4608154183318
C     1.559270    -0.315587    -3.191499
C     1.559270    -0.315587    -0.278260
H     1.559270     1.603815    -3.918015
H     3.231971    -1.269214    -3.901504
H    -0.087303    -1.284505    -3.936175
C    -0.672889     1.155390     0.905892
H     1.529306    -2.256835     0.402075
H     3.315388     0.527963     0.382439
C    -2.392585    -0.473940     2.601441
H     0.091302     2.699713     2.029783
H    -1.799607     2.000737    -0.593472
H    -3.843161     0.690139     3.468731
H    -3.323595    -1.947154     1.520974
H    -1.305399    -1.363288     4.097775
14
Optimization step: 1. E: -155.461120752431
C     1.594232    -0.236497    -3.173124
C     1.594232    -0.236497    -0.262267
H     1.594232     1.683385    -3.898045
H     3.258284    -1.197389    -3.895836
H    -0.070535    -1.194675    -3.898225
C    -0.754915     1.134998     0.898984
H     1.662414    -2.184968     0.387790
H     3.326521     0.655208     0.390520
C    -2.377710    -0.602227     2.578767
H    -0.148722     2.746673     2.020201
H    -1.943468     1.884095    -0.601001
H    -3.977720     0.427222     3.350063
H    -3.094415    -2.193449     1.497252
H    -1.271460    -1.337853     4.142903
14
Optimization step: 2. E: -155.4612321260562
C     1.593688    -0.205567    -3.167341
C     1.593688    -0.205567    -0.253322
H     1.593688     1.712877    -3.896591
H     3.258378    -1.166495    -3.887372
H    -0.068378    -1.166136    -3.893994
C    -0.769422     1.121409     0.892582
H     1.681276    -2.149852     0.409061
H     3.301506     0.724369     0.413674
C    -2.363182    -0.649417     2.570560
H    -0.179401     2.744601     2.007675
H    -1.956433     1.844124    -0.622460
H    -4.000663     0.341742     3.311692
H    -3.023320    -2.269049     1.496226
H    -1.258809    -1.340792     4.156306
14
Optimization step: 3. E: -155.46123721843912
C     1.590924    -0.221673    -3.170340
C     1.590924    -0.221673    -0.257035
H     1.590924     1.697502    -3.897496
H     3.254602    -1.182701    -3.892862
H    -0.071706    -1.181535    -3.895718
C    -0.757863     1.127479     0.894808
H     1.665543    -2.166443     0.405088
H     3.306876     0.695361     0.406738
C    -2.369176    -0.624537     2.574528
H    -0.146653     2.740820     2.012659
H    -1.940038     1.867979    -0.615235
H    -3.985473     0.388008     3.333324
H    -3.062902    -2.226793     1.495933
H    -1.263788    -1.341799     4.147945
