14
Optimization step: 0. E: -155.38614841129197
C     1.190840    -0.617832    -3.292511
C     1.190840    -0.617832    -0.457922
H     1.190840     1.168939    -3.907745
H     2.738229    -1.511218    -3.907745
H    -0.356549    -1.511218    -3.907745
C    -1.130244     0.722246     0.464930
H     1.190840    -2.404604     0.157313
H     2.738229     0.275553     0.157313
C    -1.249915     0.521610     3.289876
H    -1.037249     2.538437    -0.048751
H    -2.654800    -0.087614    -0.303783
H    -2.599941     1.677476     3.932114
H    -1.650834    -1.263341     3.763455
H     0.423109     1.020055     4.013485
14
Optimization step: 1. E: -155.46491446191905
C     1.206817    -0.629841    -3.450707
C     1.206817    -0.629841    -0.531140
H     1.206817     1.284064    -4.143086
H     2.859883    -1.586067    -4.158304
H    -0.452118    -1.584027    -4.142774
C    -1.144894     0.733002     0.537667
H     1.218580    -2.561055     0.124164
H     2.886738     0.323042     0.123220
C    -1.266187     0.534557     3.447182
H    -1.059231     2.697991    -0.001025
H    -2.812040    -0.122739    -0.265871
H    -2.708364     1.769307     4.184427
H    -1.697109    -1.378460     3.991922
H     0.526439     1.064165     4.251586
14
Optimization step: 2. E: -155.46639264822383
C     1.189375    -0.646121    -3.467961
C     1.189375    -0.646121    -0.553038
H     1.189375     1.268637    -4.197352
H     2.851495    -1.604328    -4.187286
H    -0.467663    -1.605571    -4.196963
C    -1.147034     0.716067     0.554700
H     1.236712    -2.580947     0.131533
H     2.892837     0.273759     0.129153
C    -1.228771     0.580589     3.465702
H    -1.133852     2.681998    -0.035487
H    -2.854183    -0.128090    -0.210851
H    -2.745131     1.745676     4.201476
H    -1.538161    -1.343892     4.096476
H     0.533507     1.240197     4.276410
14
Optimization step: 3. E: -155.46658579603314
C     1.174090    -0.661498    -3.468121
C     1.174090    -0.661498    -0.558613
H     1.174090     1.257914    -4.193484
H     2.836847    -1.621736    -4.191730
H    -0.488413    -1.620456    -4.193748
C    -1.152821     0.699533     0.558525
H     1.217744    -2.601922     0.121445
H     2.884924     0.255683     0.120441
C    -1.194027     0.625939     3.468191
H    -1.161678     2.656007    -0.074954
H    -2.864979    -0.178097    -0.167942
H    -2.781670     1.702840     4.195973
H    -1.363788    -1.304127     4.143396
H     0.531079     1.424418     4.240819
14
Optimization step: 4. E: -155.46664340766196
C     1.168097    -0.674547    -3.469825
C     1.168097    -0.674547    -0.557418
H     1.168097     1.244426    -4.197060
H     2.831854    -1.634813    -4.191461
H    -0.493533    -1.634465    -4.196990
C    -1.162921     0.683269     0.557881
H     1.212054    -2.615523     0.122565
H     2.877674     0.245630     0.122475
C    -1.173016     0.666457     3.469533
H    -1.198344     2.628183    -0.111245
H    -2.872786    -0.228298    -0.132957
H    -2.820376     1.654431     4.191556
H    -1.212468    -1.256856     4.184063
H     0.504777     1.589771     4.207003
14
Optimization step: 5. E: -155.46664612173217
C     1.167595    -0.676140    -3.469639
C     1.167595    -0.676140    -0.557550
H     1.167595     1.243215    -4.196120
H     2.831192    -1.636550    -4.192032
H    -0.494559    -1.635929    -4.196096
C    -1.166813     0.677544     0.557395
H     1.215368    -2.617059     0.122036
H     2.875947     0.246283     0.122133
C    -1.168322     0.674828     3.469798
H    -1.213227     2.618893    -0.121038
H    -2.875012    -0.243502    -0.124537
H    -2.829555     1.639397     4.192014
H    -1.174366    -1.244978     4.195035
H     0.495969     1.629136     4.198556
