
    -----------------------------------------------------------------------
          Psi4: An Open-Source Ab Initio Electronic Structure Package
                               Psi4 1.9.1 release

                         Git: Rev {} zzzzzzz 


    D. G. A. Smith, L. A. Burns, A. C. Simmonett, R. M. Parrish,
    M. C. Schieber, R. Galvelis, P. Kraus, H. Kruse, R. Di Remigio,
    A. Alenaizan, A. M. James, S. Lehtola, J. P. Misiewicz, M. Scheurer,
    R. A. Shaw, J. B. Schriber, Y. Xie, Z. L. Glick, D. A. Sirianni,
    J. S. O'Brien, J. M. Waldrop, A. Kumar, E. G. Hohenstein,
    B. P. Pritchard, B. R. Brooks, H. F. Schaefer III, A. Yu. Sokolov,
    K. Patkowski, A. E. DePrince III, U. Bozkaya, R. A. King,
    F. A. Evangelista, J. M. Turney, T. D. Crawford, C. D. Sherrill,
    J. Chem. Phys. 152(18) 184108 (2020). https://doi.org/10.1063/5.0006002

                            Additional Code Authors
    E. T. Seidl, C. L. Janssen, E. F. Valeev, M. L. Leininger,
    J. F. Gonthier, R. M. Richard, H. R. McAlexander, M. Saitow, X. Wang,
    P. Verma, M. H. Lechner, A. Jiang, S. Behnle, A. G. Heide,
    M. F. Herbst, and D. L. Poole

             Previous Authors, Complete List of Code Contributors,
                       and Citations for Specific Modules
    https://github.com/psi4/psi4/blob/master/codemeta.json
    https://github.com/psi4/psi4/graphs/contributors
    http://psicode.org/psi4manual/master/introduction.html#citing-psifour

    -----------------------------------------------------------------------


    Psi4 started on: Wednesday, 01 May 2024 12:11PM

    Process ID: 14224
    Host:       Barrys-MacBook-Pro.local
    PSIDATADIR: /Users/blink/psi4conda/share/psi4
    Memory:     953.7 MiB
    Threads:    1
      Threads set to 4 by Python driver.

Scratch directory: /tmp/
   => Libint2 <=

    Primary   basis highest AM E, G, H:  5, 4, 3
    Auxiliary basis highest AM E, G, H:  6, 5, 4
    Onebody   basis highest AM E, G, H:  6, 5, 4
    Solid Harmonics ordering:            Gaussian

*** tstart() called on Barrys-MacBook-Pro.local
*** at Wed May  1 13:57:08 2024

   => Loading Basis Set <=

    Name: CC-PVDZ
    Role: ORBITAL
    Keyword: BASIS
    atoms 1   entry O          line   198 file /Users/blink/psi4conda/share/psi4/basis/cc-pvdz.gbs 
    atoms 2-3 entry H          line    22 file /Users/blink/psi4conda/share/psi4/basis/cc-pvdz.gbs 


         ---------------------------------------------------------
                                   SCF
               by Justin Turney, Rob Parrish, Andy Simmonett
                          and Daniel G. A. Smith
                              RHF Reference
                        4 Threads,    953 MiB Core
         ---------------------------------------------------------

  ==> Geometry <==

    Molecular point group: c1
    Full point group: C2v

    Geometry (in Angstrom), charge = 0, multiplicity = 1:

       Center              X                  Y                   Z               Mass       
    ------------   -----------------  -----------------  -----------------  -----------------
         O            0.000000000000     0.000000000000     0.067894967413    15.994914619570
         H            0.760260000000    -0.000000000000    -0.538771201415     1.007825032230
         H           -0.760260000000    -0.000000000000    -0.538771201415     1.007825032230

  Running in c1 symmetry.

  Rotational constants: A =     25.58746  B =     14.46962  C =      9.24283 [cm^-1]
  Rotational constants: A = 767092.80996  B = 433788.24584  C = 277093.09163 [MHz]
  Nuclear repulsion =    9.052979644189181

  Charge       = 0
  Multiplicity = 1
  Electrons    = 10
  Nalpha       = 5
  Nbeta        = 5

  ==> Algorithm <==

  SCF Algorithm Type is DIRECT.
  DIIS enabled.
  MOM disabled.
  Fractional occupation disabled.
  Guess Type is SAD.
  Energy threshold   = 1.00e-06
  Density threshold  = 1.00e-06
  Integral threshold = 1.00e-08

  ==> Primary Basis <==

  -AO BASIS SET INFORMATION:
    Name                   = CC-PVDZ
    Blend                  = CC-PVDZ
    Total number of shells = 12
    Number of primitives   = 32
    Number of AO           = 25
    Number of SO           = 24
    Maximum AM             = 2
    Spherical Harmonics    = TRUE

  -Contraction Scheme:
    Atom   Type   All Primitives // Shells:
   ------ ------ --------------------------
       1     O     17s 4p 1d // 3s 2p 1d 
       2     H     4s 1p // 2s 1p 
       3     H     4s 1p // 2s 1p 

   => Loading Basis Set <=

    Name: (CC-PVDZ AUX)
    Role: JKFIT
    Keyword: DF_BASIS_SCF
    atoms 1   entry O          line   221 file /Users/blink/psi4conda/share/psi4/basis/cc-pvdz-jkfit.gbs 
    atoms 2-3 entry H          line    51 file /Users/blink/psi4conda/share/psi4/basis/cc-pvdz-jkfit.gbs 

  Starting with a DF guess...

  ==> Integral Setup <==

  DFHelper Memory: AOs need 0.001 GiB; user supplied 0.698 GiB. 
  Using in-core AOs.

  ==> MemDFJK: Density-Fitted J/K Matrices <==

    J tasked:                   Yes
    K tasked:                   Yes
    wK tasked:                   No
    OpenMP threads:               4
    Memory [MiB]:               715
    Algorithm:                 Core
    Schwarz Cutoff:           1E-08
    Mask sparsity (%):       0.0000
    Fitting Condition:        1E-10

   => Auxiliary Basis Set <=

  -AO BASIS SET INFORMATION:
    Name                   = (CC-PVDZ AUX)
    Blend                  = CC-PVDZ-JKFIT
    Total number of shells = 42
    Number of primitives   = 42
    Number of AO           = 131
    Number of SO           = 116
    Maximum AM             = 3
    Spherical Harmonics    = TRUE

  -Contraction Scheme:
    Atom   Type   All Primitives // Shells:
   ------ ------ --------------------------
       1     O     10s 7p 5d 2f // 10s 7p 5d 2f 
       2     H     4s 3p 2d // 4s 3p 2d 
       3     H     4s 3p 2d // 4s 3p 2d 

  Minimum eigenvalue in the overlap matrix is 3.5042175355E-02.
  Reciprocal condition number of the overlap matrix is 9.4951723144E-03.
    Using symmetric orthogonalization.

  ==> Pre-Iterations <==

  SCF Guess: Superposition of Atomic Densities via on-the-fly atomic UHF (no occupation information).

   -------------------------
    Irrep   Nso     Nmo    
   -------------------------
     A         24      24 
   -------------------------
    Total      24      24
   -------------------------

  ==> Iterations <==

                           Total Energy        Delta E     RMS |[F,P]|

   @DF-RHF iter SAD:   -75.49203049694252   -7.54920e+01   0.00000e+00 
   @DF-RHF iter   1:   -75.95165027023651   -4.59620e-01   1.74113e-02 ADIIS/DIIS
   @DF-RHF iter   2:   -76.00526451695426   -5.36142e-02   1.01434e-02 ADIIS/DIIS
   @DF-RHF iter   3:   -76.02509016151487   -1.98256e-02   1.08596e-03 ADIIS/DIIS
   @DF-RHF iter   4:   -76.02556705307019   -4.76892e-04   2.20709e-04 ADIIS/DIIS
   @DF-RHF iter   5:   -76.02558871526965   -2.16622e-05   3.99282e-05 DIIS
   @DF-RHF iter   6:   -76.02558969777749   -9.82508e-07   6.06172e-06 DIIS
   @DF-RHF iter   7:   -76.02558972212802   -2.43505e-08   7.98511e-07 DIIS

  DF guess converged.

  ==> DirectJK: Integral-Direct J/K Matrices <==

    J tasked:                  Yes
    K tasked:                  Yes
    wK tasked:                  No
    Integrals threads:           4
    Screening Type:           CSAM
    Screening Cutoff:        1E-08
    Incremental Fock:           No

   @RHF iter   8:   -76.02561132015745   -7.60256e+01   7.15409e-06 DIIS
   @RHF iter   9:   -76.02561133330283   -1.31454e-08   1.16164e-06 DIIS
   @RHF iter  10:   -76.02561133372078   -4.17941e-10   2.50419e-07 DIIS
  Energy and wave function converged.


  ==> Post-Iterations <==

    Orbital Energies [Eh]
    ---------------------

    Doubly Occupied:                                                      

       1A    -20.554067     2A     -1.330341     3A     -0.687982  
       4A     -0.567178     5A     -0.492705  

    Virtual:                                                              

       6A      0.182614     7A      0.254092     8A      0.772892  
       9A      0.847483    10A      1.165920    11A      1.199590  
      12A      1.256122    13A      1.431417    14A      1.477894  
      15A      1.662640    16A      1.867081    17A      1.927876  
      18A      2.412840    19A      2.455349    20A      3.280618  
      21A      3.317599    22A      3.496160    23A      3.837681  
      24A      4.139144  

    Final Occupation by Irrep:
              A 
    DOCC [     5 ]
    NA   [     5 ]
    NB   [     5 ]

  @RHF Final Energy:   -76.02561133372078

   => Energetics <=

    Nuclear Repulsion Energy =              9.0529796441891808
    One-Electron Energy =                -122.8926377725700405
    Two-Electron Energy =                  37.8140467946600936
    Total Energy =                        -76.0256113337207751

Computation Completed


Properties will be evaluated at   0.000000,   0.000000,   0.000000 [a0]

Properties computed using the SCF density matrix


 Multipole Moments:

 ------------------------------------------------------------------------------------
     Multipole            Electronic (a.u.)      Nuclear  (a.u.)        Total (a.u.)
 ------------------------------------------------------------------------------------

 L = 1.  Multiply by 2.5417464519 to convert [e a0] to [Debye]
 Dipole X            :          0.0000000            0.0000000            0.0000000
 Dipole Y            :         -0.0000000           -0.0000000           -0.0000000
 Dipole Z            :          0.1850035           -1.0098369           -0.8248334
 Magnitude           :                                                    0.8248334

 ------------------------------------------------------------------------------------

*** tstop() called on Barrys-MacBook-Pro.local at Wed May  1 13:57:09 2024
Module time:
	user time   =       1.92 seconds =       0.03 minutes
	system time =       0.18 seconds =       0.00 minutes
	total time  =          1 seconds =       0.02 minutes
Total time:
	user time   =       1.92 seconds =       0.03 minutes
	system time =       0.18 seconds =       0.00 minutes
	total time  =          1 seconds =       0.02 minutes
