
    -----------------------------------------------------------------------
          Psi4: An Open-Source Ab Initio Electronic Structure Package
                               Psi4 1.9.1 release

                         Git: Rev {} zzzzzzz 


    D. G. A. Smith, L. A. Burns, A. C. Simmonett, R. M. Parrish,
    M. C. Schieber, R. Galvelis, P. Kraus, H. Kruse, R. Di Remigio,
    A. Alenaizan, A. M. James, S. Lehtola, J. P. Misiewicz, M. Scheurer,
    R. A. Shaw, J. B. Schriber, Y. Xie, Z. L. Glick, D. A. Sirianni,
    J. S. O'Brien, J. M. Waldrop, A. Kumar, E. G. Hohenstein,
    B. P. Pritchard, B. R. Brooks, H. F. Schaefer III, A. Yu. Sokolov,
    K. Patkowski, A. E. DePrince III, U. Bozkaya, R. A. King,
    F. A. Evangelista, J. M. Turney, T. D. Crawford, C. D. Sherrill,
    J. Chem. Phys. 152(18) 184108 (2020). https://doi.org/10.1063/5.0006002

                            Additional Code Authors
    E. T. Seidl, C. L. Janssen, E. F. Valeev, M. L. Leininger,
    J. F. Gonthier, R. M. Richard, H. R. McAlexander, M. Saitow, X. Wang,
    P. Verma, M. H. Lechner, A. Jiang, S. Behnle, A. G. Heide,
    M. F. Herbst, and D. L. Poole

             Previous Authors, Complete List of Code Contributors,
                       and Citations for Specific Modules
    https://github.com/psi4/psi4/blob/master/codemeta.json
    https://github.com/psi4/psi4/graphs/contributors
    http://psicode.org/psi4manual/master/introduction.html#citing-psifour

    -----------------------------------------------------------------------


    Psi4 started on: Friday, 03 May 2024 07:16PM

    Process ID: 11282
    Host:       Barrys-MacBook-Pro.local
    PSIDATADIR: /Users/blink/psi4conda/share/psi4
    Memory:     953.7 MiB
    Threads:    4
      Threads set to 4 by Python driver.

Scratch directory: /tmp/
gradient() will perform analytic gradient computation.
   => Libint2 <=

    Primary   basis highest AM E, G, H:  5, 4, 3
    Auxiliary basis highest AM E, G, H:  6, 5, 4
    Onebody   basis highest AM E, G, H:  6, 5, 4
    Solid Harmonics ordering:            Gaussian

*** tstart() called on Barrys-MacBook-Pro.local
*** at Fri May  3 19:16:38 2024

   => Loading Basis Set <=

    Name: CC-PVDZ
    Role: ORBITAL
    Keyword: BASIS
    atoms 1   entry O          line   198 file /Users/blink/psi4conda/share/psi4/basis/cc-pvdz.gbs 
    atoms 2-3 entry H          line    22 file /Users/blink/psi4conda/share/psi4/basis/cc-pvdz.gbs 


         ---------------------------------------------------------
                                   SCF
               by Justin Turney, Rob Parrish, Andy Simmonett
                          and Daniel G. A. Smith
                              UHF Reference
                        4 Threads,    953 MiB Core
         ---------------------------------------------------------

  ==> Geometry <==

    Molecular point group: c1
    Full point group: C2v

    Geometry (in Angstrom), charge = 0, multiplicity = 1:

       Center              X                  Y                   Z               Mass       
    ------------   -----------------  -----------------  -----------------  -----------------
         O            0.000000000000    -0.000000000000     0.069363737038    15.994914619570
         H            0.760260000000     0.000000000000    -0.550426421322     1.007825032230
         H           -0.760260000000     0.000000000000    -0.550426421322     1.007825032230

  Running in c1 symmetry.

  Rotational constants: A =     24.51531  B =     14.46962  C =      9.09909 [cm^-1]
  Rotational constants: A = 734950.54152  B = 433788.24584  C = 272783.71321 [MHz]
  Nuclear repulsion =    8.979857931322545

  Charge       = 0
  Multiplicity = 1
  Electrons    = 10
  Nalpha       = 5
  Nbeta        = 5

  ==> Algorithm <==

  SCF Algorithm Type is DIRECT.
  DIIS enabled.
  MOM disabled.
  Fractional occupation disabled.
  Guess Type is SAD.
  Energy threshold   = 1.00e-08
  Density threshold  = 1.00e-08
  Integral threshold = 1.00e-12

  ==> Primary Basis <==

  -AO BASIS SET INFORMATION:
    Name                   = CC-PVDZ
    Blend                  = CC-PVDZ
    Total number of shells = 12
    Number of primitives   = 32
    Number of AO           = 25
    Number of SO           = 24
    Maximum AM             = 2
    Spherical Harmonics    = TRUE

  -Contraction Scheme:
    Atom   Type   All Primitives // Shells:
   ------ ------ --------------------------
       1     O     17s 4p 1d // 3s 2p 1d 
       2     H     4s 1p // 2s 1p 
       3     H     4s 1p // 2s 1p 

   => Loading Basis Set <=

    Name: (CC-PVDZ AUX)
    Role: JKFIT
    Keyword: DF_BASIS_SCF
    atoms 1   entry O          line   221 file /Users/blink/psi4conda/share/psi4/basis/cc-pvdz-jkfit.gbs 
    atoms 2-3 entry H          line    51 file /Users/blink/psi4conda/share/psi4/basis/cc-pvdz-jkfit.gbs 

  Starting with a DF guess...

  ==> Integral Setup <==

  DFHelper Memory: AOs need 0.001 GiB; user supplied 0.698 GiB. 
  Using in-core AOs.

  ==> MemDFJK: Density-Fitted J/K Matrices <==

    J tasked:                   Yes
    K tasked:                   Yes
    wK tasked:                   No
    OpenMP threads:               4
    Memory [MiB]:               715
    Algorithm:                 Core
    Schwarz Cutoff:           1E-12
    Mask sparsity (%):       0.0000
    Fitting Condition:        1E-10

   => Auxiliary Basis Set <=

  -AO BASIS SET INFORMATION:
    Name                   = (CC-PVDZ AUX)
    Blend                  = CC-PVDZ-JKFIT
    Total number of shells = 42
    Number of primitives   = 42
    Number of AO           = 131
    Number of SO           = 116
    Maximum AM             = 3
    Spherical Harmonics    = TRUE

  -Contraction Scheme:
    Atom   Type   All Primitives // Shells:
   ------ ------ --------------------------
       1     O     10s 7p 5d 2f // 10s 7p 5d 2f 
       2     H     4s 3p 2d // 4s 3p 2d 
       3     H     4s 3p 2d // 4s 3p 2d 

  Minimum eigenvalue in the overlap matrix is 3.5465939755E-02.
  Reciprocal condition number of the overlap matrix is 9.6294720207E-03.
    Using symmetric orthogonalization.

  ==> Pre-Iterations <==

  SCF Guess: Superposition of Atomic Densities via on-the-fly atomic UHF (no occupation information).

   -------------------------
    Irrep   Nso     Nmo    
   -------------------------
     A         24      24 
   -------------------------
    Total      24      24
   -------------------------

  ==> Iterations <==

                           Total Energy        Delta E     RMS |[F,P]|

   @DF-UHF iter SAD:   -75.48184814399252   -7.54818e+01   0.00000e+00 
   @DF-UHF iter   1:   -75.94983095375369   -4.67983e-01   1.74212e-02 DIIS/ADIIS
   @DF-UHF iter   2:   -76.00367525712257   -5.38443e-02   1.02668e-02 DIIS/ADIIS
   @DF-UHF iter   3:   -76.02402375277592   -2.03485e-02   1.09759e-03 DIIS/ADIIS
   @DF-UHF iter   4:   -76.02451502903673   -4.91276e-04   2.27906e-04 DIIS/ADIIS
   @DF-UHF iter   5:   -76.02453817592742   -2.31469e-05   4.08409e-05 DIIS
   @DF-UHF iter   6:   -76.02453919466512   -1.01874e-06   6.02514e-06 DIIS
   @DF-UHF iter   7:   -76.02453921786926   -2.32041e-08   7.44525e-07 DIIS
   @DF-UHF iter   8:   -76.02453921822914   -3.59876e-10   1.79524e-07 DIIS
   @DF-UHF iter   9:   -76.02453921825622   -2.70859e-11   3.74424e-08 DIIS
   @DF-UHF iter  10:   -76.02453921825732   -1.09424e-12   3.19194e-09 DIIS

  DF guess converged.

  ==> DirectJK: Integral-Direct J/K Matrices <==

    J tasked:                  Yes
    K tasked:                  Yes
    wK tasked:                  No
    Integrals threads:           4
    Screening Type:           CSAM
    Screening Cutoff:        1E-12
    Incremental Fock:           No

   @UHF iter  11:   -76.02456129751648   -7.60246e+01   7.29792e-06 DIIS

PsiException: Could not converge SCF iterations in 11 iterations.

  Failed to converge.

Scratch directory: /tmp/
gradient() will perform analytic gradient computation.
   => Libint2 <=

    Primary   basis highest AM E, G, H:  5, 4, 3
    Auxiliary basis highest AM E, G, H:  6, 5, 4
    Onebody   basis highest AM E, G, H:  6, 5, 4
    Solid Harmonics ordering:            Gaussian

*** tstart() called on Barrys-MacBook-Pro.local
*** at Fri May  3 19:16:39 2024

   => Loading Basis Set <=

    Name: CC-PVDZ
    Role: ORBITAL
    Keyword: BASIS
    atoms 1   entry O          line   198 file /Users/blink/psi4conda/share/psi4/basis/cc-pvdz.gbs 
    atoms 2-3 entry H          line    22 file /Users/blink/psi4conda/share/psi4/basis/cc-pvdz.gbs 


         ---------------------------------------------------------
                                   SCF
               by Justin Turney, Rob Parrish, Andy Simmonett
                          and Daniel G. A. Smith
                              UHF Reference
                        4 Threads,    953 MiB Core
         ---------------------------------------------------------

  ==> Geometry <==

    Molecular point group: c1
    Full point group: C2v

    Geometry (in Angstrom), charge = 0, multiplicity = 1:

       Center              X                  Y                   Z               Mass       
    ------------   -----------------  -----------------  -----------------  -----------------
         O            0.000000000000    -0.000000000000     0.069363737038    15.994914619570
         H            0.760260000000     0.000000000000    -0.550426421322     1.007825032230
         H           -0.760260000000     0.000000000000    -0.550426421322     1.007825032230

  Running in c1 symmetry.

  Rotational constants: A =     24.51531  B =     14.46962  C =      9.09909 [cm^-1]
  Rotational constants: A = 734950.54152  B = 433788.24584  C = 272783.71321 [MHz]
  Nuclear repulsion =    8.979857931322545

  Charge       = 0
  Multiplicity = 1
  Electrons    = 10
  Nalpha       = 5
  Nbeta        = 5

  ==> Algorithm <==

  SCF Algorithm Type is DIRECT.
  DIIS enabled.
  MOM disabled.
  Fractional occupation disabled.
  Guess Type is READ.
  Energy threshold   = 1.00e-08
  Density threshold  = 1.00e-08
  Integral threshold = 1.00e-12

  ==> Primary Basis <==

  -AO BASIS SET INFORMATION:
    Name                   = CC-PVDZ
    Blend                  = CC-PVDZ
    Total number of shells = 12
    Number of primitives   = 32
    Number of AO           = 25
    Number of SO           = 24
    Maximum AM             = 2
    Spherical Harmonics    = TRUE

  -Contraction Scheme:
    Atom   Type   All Primitives // Shells:
   ------ ------ --------------------------
       1     O     17s 4p 1d // 3s 2p 1d 
       2     H     4s 1p // 2s 1p 
       3     H     4s 1p // 2s 1p 

   => Loading Basis Set <=

    Name: (CC-PVDZ AUX)
    Role: JKFIT
    Keyword: DF_BASIS_SCF
    atoms 1   entry O          line   221 file /Users/blink/psi4conda/share/psi4/basis/cc-pvdz-jkfit.gbs 
    atoms 2-3 entry H          line    51 file /Users/blink/psi4conda/share/psi4/basis/cc-pvdz-jkfit.gbs 

   => Loading Basis Set <=

    Name: CC-PVDZ
    Role: ORBITAL
    Keyword: BASIS
    atoms 1   entry O          line   198 file /Users/blink/psi4conda/share/psi4/basis/cc-pvdz.gbs 
    atoms 2-3 entry H          line    22 file /Users/blink/psi4conda/share/psi4/basis/cc-pvdz.gbs 

  Reading orbitals from file /tmp/p4_output.default.11282.180.npy, no projection.

  Starting with a DF guess...

  ==> Integral Setup <==

  DFHelper Memory: AOs need 0.001 GiB; user supplied 0.698 GiB. 
  Using in-core AOs.

  ==> MemDFJK: Density-Fitted J/K Matrices <==

    J tasked:                   Yes
    K tasked:                   Yes
    wK tasked:                   No
    OpenMP threads:               4
    Memory [MiB]:               715
    Algorithm:                 Core
    Schwarz Cutoff:           1E-12
    Mask sparsity (%):       0.0000
    Fitting Condition:        1E-10

   => Auxiliary Basis Set <=

  -AO BASIS SET INFORMATION:
    Name                   = (CC-PVDZ AUX)
    Blend                  = CC-PVDZ-JKFIT
    Total number of shells = 42
    Number of primitives   = 42
    Number of AO           = 131
    Number of SO           = 116
    Maximum AM             = 3
    Spherical Harmonics    = TRUE

  -Contraction Scheme:
    Atom   Type   All Primitives // Shells:
   ------ ------ --------------------------
       1     O     10s 7p 5d 2f // 10s 7p 5d 2f 
       2     H     4s 3p 2d // 4s 3p 2d 
       3     H     4s 3p 2d // 4s 3p 2d 

  Minimum eigenvalue in the overlap matrix is 3.5465939755E-02.
  Reciprocal condition number of the overlap matrix is 9.6294720207E-03.
    Using symmetric orthogonalization.

  ==> Pre-Iterations <==

  SCF Guess: Orbitals guess was supplied from a previous computation.

   -------------------------------------------------------
    Irrep   Nso     Nmo     Nalpha   Nbeta   Ndocc  Nsocc
   -------------------------------------------------------
     A         24      24       5       5       5       0
   -------------------------------------------------------
    Total      24      24       5       5       5       0
   -------------------------------------------------------

  ==> Iterations <==

                           Total Energy        Delta E     RMS |[F,P]|

   @DF-UHF iter   0:   -76.02453920722215   -7.60245e+01   6.52811e-06 
   @DF-UHF iter   1:   -76.02453921797401   -1.07519e-08   1.01688e-06 DIIS
   @DF-UHF iter   2:   -76.02453921823636   -2.62347e-10   2.71044e-07 DIIS
   @DF-UHF iter   3:   -76.02453921825398   -1.76215e-11   1.12251e-07 DIIS
   @DF-UHF iter   4:   -76.02453921825716   -3.18323e-12   2.26129e-08 DIIS
   @DF-UHF iter   5:   -76.02453921825727   -1.13687e-13   2.67056e-09 DIIS

  DF guess converged.

  ==> DirectJK: Integral-Direct J/K Matrices <==

    J tasked:                  Yes
    K tasked:                  Yes
    wK tasked:                  No
    Integrals threads:           4
    Screening Type:           CSAM
    Screening Cutoff:        1E-12
    Incremental Fock:           No

   @UHF iter   6:   -76.02456129751673   -7.60246e+01   7.29789e-06 DIIS
   @UHF iter   7:   -76.02456131126851   -1.37518e-08   1.18777e-06 DIIS
   @UHF iter   8:   -76.02456131170058   -4.32067e-10   2.61086e-07 DIIS
   @UHF iter   9:   -76.02456131171873   -1.81473e-11   8.13760e-08 DIIS
   @UHF iter  10:   -76.02456131172063   -1.90425e-12   2.95088e-08 DIIS
   @UHF iter  11:   -76.02456131172080   -1.70530e-13   2.98245e-09 DIIS
  Energy and wave function converged.


  ==> Post-Iterations <==

   @Spin Contamination Metric:  -5.329070518E-15
   @S^2 Expected:                0.000000000E+00
   @S^2 Observed:               -5.329070518E-15
   @S   Expected:                0.000000000E+00
   @S   Observed:                0.000000000E+00

    Orbital Energies [Eh]
    ---------------------

    Alpha Occupied:                                                       

       1A    -20.556175     2A     -1.327282     3A     -0.681507  
       4A     -0.568090     5A     -0.492622  

    Alpha Virtual:                                                        

       6A      0.180954     7A      0.252862     8A      0.763592  
       9A      0.845036    10A      1.167544    11A      1.198903  
      12A      1.258072    13A      1.421402    14A      1.479852  
      15A      1.654869    16A      1.866567    17A      1.925827  
      18A      2.391807    19A      2.437582    20A      3.279015  
      21A      3.305401    22A      3.487476    23A      3.822825  
      24A      4.135517  

    Beta Occupied:                                                        

       1A    -20.556175     2A     -1.327282     3A     -0.681507  
       4A     -0.568090     5A     -0.492622  

    Beta Virtual:                                                         

       6A      0.180954     7A      0.252862     8A      0.763592  
       9A      0.845036    10A      1.167544    11A      1.198903  
      12A      1.258072    13A      1.421402    14A      1.479852  
      15A      1.654869    16A      1.866567    17A      1.925827  
      18A      2.391807    19A      2.437582    20A      3.279015  
      21A      3.305401    22A      3.487476    23A      3.822825  
      24A      4.135517  

    Final Occupation by Irrep:
              A 
    DOCC [     5 ]
    SOCC [     0 ]
    NA   [     5 ]
    NB   [     5 ]

  @UHF Final Energy:   -76.02456131172080

   => Energetics <=

    Nuclear Repulsion Energy =              8.9798579313225453
    One-Electron Energy =                -122.7574877131334716
    Two-Electron Energy =                  37.7530684700901205
    Total Energy =                        -76.0245613117208165

  UHF NO Occupations:
  HONO-2 :    3  A 2.0000000
  HONO-1 :    4  A 2.0000000
  HONO-0 :    5  A 2.0000000
  LUNO+0 :    6  A 0.0000000
  LUNO+1 :    7  A 0.0000000
  LUNO+2 :    8  A 0.0000000
  LUNO+3 :    9  A 0.0000000


Computation Completed


Properties will be evaluated at   0.000000,   0.000000,   0.000000 [a0]

Properties computed using the SCF density matrix


 Multipole Moments:

 ------------------------------------------------------------------------------------
     Multipole            Electronic (a.u.)      Nuclear  (a.u.)        Total (a.u.)
 ------------------------------------------------------------------------------------

 L = 1.  Multiply by 2.5417464519 to convert [e a0] to [Debye]
 Dipole X            :         -0.0000000            0.0000000           -0.0000000
 Dipole Y            :         -0.0000000            0.0000000           -0.0000000
 Dipole Z            :          0.1967752           -1.0316826           -0.8349074
 Magnitude           :                                                    0.8349074

 ------------------------------------------------------------------------------------

*** tstop() called on Barrys-MacBook-Pro.local at Fri May  3 19:16:39 2024
Module time:
	user time   =       1.32 seconds =       0.02 minutes
	system time =       0.08 seconds =       0.00 minutes
	total time  =          0 seconds =       0.00 minutes
Total time:
	user time   =      19.20 seconds =       0.32 minutes
	system time =       1.11 seconds =       0.02 minutes
	total time  =         16 seconds =       0.27 minutes

*** tstart() called on Barrys-MacBook-Pro.local
*** at Fri May  3 19:16:39 2024


         ------------------------------------------------------------
                                   SCF GRAD                          
                          Rob Parrish, Justin Turney,                
                       Andy Simmonett, and Alex Sokolov              
         ------------------------------------------------------------

  ==> Geometry <==

    Molecular point group: c1
    Full point group: C2v

    Geometry (in Angstrom), charge = 0, multiplicity = 1:

       Center              X                  Y                   Z               Mass       
    ------------   -----------------  -----------------  -----------------  -----------------
         O            0.000000000000    -0.000000000000     0.069363737038    15.994914619570
         H            0.760260000000     0.000000000000    -0.550426421322     1.007825032230
         H           -0.760260000000     0.000000000000    -0.550426421322     1.007825032230

  Nuclear repulsion =    8.979857931322545

  ==> Basis Set <==

  -AO BASIS SET INFORMATION:
    Name                   = CC-PVDZ
    Blend                  = CC-PVDZ
    Total number of shells = 12
    Number of primitives   = 32
    Number of AO           = 25
    Number of SO           = 24
    Maximum AM             = 2
    Spherical Harmonics    = TRUE

  -Contraction Scheme:
    Atom   Type   All Primitives // Shells:
   ------ ------ --------------------------
       1     O     17s 4p 1d // 3s 2p 1d 
       2     H     4s 1p // 2s 1p 
       3     H     4s 1p // 2s 1p 

  ==> DirectJKGrad: Integral-Direct SCF Gradients <==

    Gradient:                    1
    J tasked:                  Yes
    K tasked:                  Yes
    wK tasked:                  No
    Integrals threads:           4
    Schwarz Cutoff:          1E-12


  -Nuclear Gradient:
     Atom            X                  Y                   Z
    ------   -----------------  -----------------  -----------------
       1        0.000000000000     0.000000000000    -2.942475332221
       2       -1.925800989255    -0.000000000000     1.471237666111
       3        1.925800989255    -0.000000000000     1.471237666111


  -Core Hamiltonian Gradient:
     Atom            X                  Y                   Z
    ------   -----------------  -----------------  -----------------
       1        0.000000000000    -0.000000000000     7.644971837419
       2        4.773319622868     0.000000000000    -3.822485918710
       3       -4.773319622868     0.000000000000    -3.822485918710


  -Overlap Gradient:
     Atom            X                  Y                   Z
    ------   -----------------  -----------------  -----------------
       1       -0.000000000000     0.000000000000    -0.498359646014
       2       -0.284803859133     0.000000000000     0.249179823007
       3        0.284803859133    -0.000000000000     0.249179823007


  -Coulomb Gradient:
     Atom            X                  Y                   Z
    ------   -----------------  -----------------  -----------------
       1        0.000000000000     0.000000000000    -4.819123276188
       2       -2.938662444278    -0.000000000000     2.409561638094
       3        2.938662444278    -0.000000000000     2.409561638094


  -Exchange Gradient:
     Atom            X                  Y                   Z
    ------   -----------------  -----------------  -----------------
       1       -0.000000000000    -0.000000000000     0.663281979303
       2        0.400731180952     0.000000000000    -0.331640989652
       3       -0.400731180952     0.000000000000    -0.331640989652


  -Total Gradient:
     Atom            X                  Y                   Z
    ------   -----------------  -----------------  -----------------
       1       -0.000000000000    -0.000000000000     0.048295562299
       2        0.024783511154     0.000000000000    -0.024147781150
       3       -0.024783511154     0.000000000000    -0.024147781150


*** tstop() called on Barrys-MacBook-Pro.local at Fri May  3 19:16:39 2024
Module time:
	user time   =       0.30 seconds =       0.01 minutes
	system time =       0.03 seconds =       0.00 minutes
	total time  =          0 seconds =       0.00 minutes
Total time:
	user time   =      19.51 seconds =       0.33 minutes
	system time =       1.14 seconds =       0.02 minutes
	total time  =         16 seconds =       0.27 minutes
hessian() using ref_gradient to assess stationary point.

  Based on options and gradient (rms=2.29E-02), recommend projecting translations and not projecting rotations.
hessian() will perform analytic frequency computation.
   => Libint2 <=

    Primary   basis highest AM E, G, H:  5, 4, 3
    Auxiliary basis highest AM E, G, H:  6, 5, 4
    Onebody   basis highest AM E, G, H:  6, 5, 4
    Solid Harmonics ordering:            Gaussian

*** tstart() called on Barrys-MacBook-Pro.local
*** at Fri May  3 19:16:39 2024

   => Loading Basis Set <=

    Name: CC-PVDZ
    Role: ORBITAL
    Keyword: BASIS
    atoms 1   entry O          line   198 file /Users/blink/psi4conda/share/psi4/basis/cc-pvdz.gbs 
    atoms 2-3 entry H          line    22 file /Users/blink/psi4conda/share/psi4/basis/cc-pvdz.gbs 


         ---------------------------------------------------------
                                   SCF
               by Justin Turney, Rob Parrish, Andy Simmonett
                          and Daniel G. A. Smith
                              UHF Reference
                        4 Threads,    953 MiB Core
         ---------------------------------------------------------

  ==> Geometry <==

    Molecular point group: c1
    Full point group: C2v

    Geometry (in Angstrom), charge = 0, multiplicity = 1:

       Center              X                  Y                   Z               Mass       
    ------------   -----------------  -----------------  -----------------  -----------------
         O            0.000000000000    -0.000000000000     0.069363737038    15.994914619570
         H            0.760260000000     0.000000000000    -0.550426421322     1.007825032230
         H           -0.760260000000     0.000000000000    -0.550426421322     1.007825032230

  Running in c1 symmetry.

  Rotational constants: A =     24.51531  B =     14.46962  C =      9.09909 [cm^-1]
  Rotational constants: A = 734950.54152  B = 433788.24584  C = 272783.71321 [MHz]
  Nuclear repulsion =    8.979857931322545

  Charge       = 0
  Multiplicity = 1
  Electrons    = 10
  Nalpha       = 5
  Nbeta        = 5

  ==> Algorithm <==

  SCF Algorithm Type is DIRECT.
  DIIS enabled.
  MOM disabled.
  Fractional occupation disabled.
  Guess Type is READ.
  Energy threshold   = 1.00e-08
  Density threshold  = 1.00e-08
  Integral threshold = 1.00e-12

  ==> Primary Basis <==

  -AO BASIS SET INFORMATION:
    Name                   = CC-PVDZ
    Blend                  = CC-PVDZ
    Total number of shells = 12
    Number of primitives   = 32
    Number of AO           = 25
    Number of SO           = 24
    Maximum AM             = 2
    Spherical Harmonics    = TRUE

  -Contraction Scheme:
    Atom   Type   All Primitives // Shells:
   ------ ------ --------------------------
       1     O     17s 4p 1d // 3s 2p 1d 
       2     H     4s 1p // 2s 1p 
       3     H     4s 1p // 2s 1p 

   => Loading Basis Set <=

    Name: (CC-PVDZ AUX)
    Role: JKFIT
    Keyword: DF_BASIS_SCF
    atoms 1   entry O          line   221 file /Users/blink/psi4conda/share/psi4/basis/cc-pvdz-jkfit.gbs 
    atoms 2-3 entry H          line    51 file /Users/blink/psi4conda/share/psi4/basis/cc-pvdz-jkfit.gbs 

   => Loading Basis Set <=

    Name: CC-PVDZ
    Role: ORBITAL
    Keyword: BASIS
    atoms 1   entry O          line   198 file /Users/blink/psi4conda/share/psi4/basis/cc-pvdz.gbs 
    atoms 2-3 entry H          line    22 file /Users/blink/psi4conda/share/psi4/basis/cc-pvdz.gbs 

  Reading orbitals from file /tmp/p4_output.default.11282.180.npy, no projection.

  Starting with a DF guess...

  ==> Integral Setup <==

  DFHelper Memory: AOs need 0.001 GiB; user supplied 0.698 GiB. 
  Using in-core AOs.

  ==> MemDFJK: Density-Fitted J/K Matrices <==

    J tasked:                   Yes
    K tasked:                   Yes
    wK tasked:                   No
    OpenMP threads:               4
    Memory [MiB]:               715
    Algorithm:                 Core
    Schwarz Cutoff:           1E-12
    Mask sparsity (%):       0.0000
    Fitting Condition:        1E-10

   => Auxiliary Basis Set <=

  -AO BASIS SET INFORMATION:
    Name                   = (CC-PVDZ AUX)
    Blend                  = CC-PVDZ-JKFIT
    Total number of shells = 42
    Number of primitives   = 42
    Number of AO           = 131
    Number of SO           = 116
    Maximum AM             = 3
    Spherical Harmonics    = TRUE

  -Contraction Scheme:
    Atom   Type   All Primitives // Shells:
   ------ ------ --------------------------
       1     O     10s 7p 5d 2f // 10s 7p 5d 2f 
       2     H     4s 3p 2d // 4s 3p 2d 
       3     H     4s 3p 2d // 4s 3p 2d 

  Minimum eigenvalue in the overlap matrix is 3.5465939755E-02.
  Reciprocal condition number of the overlap matrix is 9.6294720207E-03.
    Using symmetric orthogonalization.

  ==> Pre-Iterations <==

  SCF Guess: Orbitals guess was supplied from a previous computation.

   -------------------------------------------------------
    Irrep   Nso     Nmo     Nalpha   Nbeta   Ndocc  Nsocc
   -------------------------------------------------------
     A         24      24       5       5       5       0
   -------------------------------------------------------
    Total      24      24       5       5       5       0
   -------------------------------------------------------

  ==> Iterations <==

                           Total Energy        Delta E     RMS |[F,P]|

   @DF-UHF iter   0:   -76.02453920404723   -7.60245e+01   7.30078e-06 
   @DF-UHF iter   1:   -76.02453921780528   -1.37581e-08   1.18789e-06 DIIS
   @DF-UHF iter   2:   -76.02453921822564   -4.20357e-10   2.95698e-07 DIIS
   @DF-UHF iter   3:   -76.02453921825460   -2.89617e-11   9.69799e-08 DIIS
   @DF-UHF iter   4:   -76.02453921825715   -2.54374e-12   2.95085e-08 DIIS
   @DF-UHF iter   5:   -76.02453921825737   -2.27374e-13   3.61039e-09 DIIS

  DF guess converged.

  ==> DirectJK: Integral-Direct J/K Matrices <==

    J tasked:                  Yes
    K tasked:                  Yes
    wK tasked:                  No
    Integrals threads:           4
    Screening Type:           CSAM
    Screening Cutoff:        1E-12
    Incremental Fock:           No

   @UHF iter   6:   -76.02456129751668   -7.60246e+01   7.29790e-06 DIIS
   @UHF iter   7:   -76.02456131126854   -1.37519e-08   1.18778e-06 DIIS
   @UHF iter   8:   -76.02456131170057   -4.32024e-10   2.61078e-07 DIIS
   @UHF iter   9:   -76.02456131171861   -1.80478e-11   8.13698e-08 DIIS
   @UHF iter  10:   -76.02456131172062   -2.00373e-12   2.95066e-08 DIIS
   @UHF iter  11:   -76.02456131172079   -1.70530e-13   2.98077e-09 DIIS
  Energy and wave function converged.


  ==> Post-Iterations <==

   @Spin Contamination Metric:   1.776356839E-15
   @S^2 Expected:                0.000000000E+00
   @S^2 Observed:                1.776356839E-15
   @S   Expected:                0.000000000E+00
   @S   Observed:                0.000000000E+00

    Orbital Energies [Eh]
    ---------------------

    Alpha Occupied:                                                       

       1A    -20.556175     2A     -1.327282     3A     -0.681507  
       4A     -0.568090     5A     -0.492622  

    Alpha Virtual:                                                        

       6A      0.180954     7A      0.252862     8A      0.763592  
       9A      0.845036    10A      1.167544    11A      1.198903  
      12A      1.258072    13A      1.421402    14A      1.479852  
      15A      1.654869    16A      1.866567    17A      1.925827  
      18A      2.391807    19A      2.437582    20A      3.279015  
      21A      3.305401    22A      3.487476    23A      3.822825  
      24A      4.135517  

    Beta Occupied:                                                        

       1A    -20.556175     2A     -1.327282     3A     -0.681507  
       4A     -0.568090     5A     -0.492622  

    Beta Virtual:                                                         

       6A      0.180954     7A      0.252862     8A      0.763592  
       9A      0.845036    10A      1.167544    11A      1.198903  
      12A      1.258072    13A      1.421402    14A      1.479852  
      15A      1.654869    16A      1.866567    17A      1.925827  
      18A      2.391807    19A      2.437582    20A      3.279015  
      21A      3.305401    22A      3.487476    23A      3.822825  
      24A      4.135517  

    Final Occupation by Irrep:
              A 
    DOCC [     5 ]
    SOCC [     0 ]
    NA   [     5 ]
    NB   [     5 ]

  @UHF Final Energy:   -76.02456131172079

   => Energetics <=

    Nuclear Repulsion Energy =              8.9798579313225453
    One-Electron Energy =                -122.7574877131602591
    Two-Electron Energy =                  37.7530684701169363
    Total Energy =                        -76.0245613117207881

  UHF NO Occupations:
  HONO-2 :    3  A 2.0000000
  HONO-1 :    4  A 2.0000000
  HONO-0 :    5  A 2.0000000
  LUNO+0 :    6  A 0.0000000
  LUNO+1 :    7  A 0.0000000
  LUNO+2 :    8  A 0.0000000
  LUNO+3 :    9  A 0.0000000


Computation Completed


Properties will be evaluated at   0.000000,   0.000000,   0.000000 [a0]

Properties computed using the SCF density matrix


 Multipole Moments:

 ------------------------------------------------------------------------------------
     Multipole            Electronic (a.u.)      Nuclear  (a.u.)        Total (a.u.)
 ------------------------------------------------------------------------------------

 L = 1.  Multiply by 2.5417464519 to convert [e a0] to [Debye]
 Dipole X            :         -0.0000000            0.0000000           -0.0000000
 Dipole Y            :          0.0000000            0.0000000            0.0000000
 Dipole Z            :          0.1967752           -1.0316826           -0.8349074
 Magnitude           :                                                    0.8349074

 ------------------------------------------------------------------------------------

*** tstop() called on Barrys-MacBook-Pro.local at Fri May  3 19:16:40 2024
Module time:
	user time   =       1.33 seconds =       0.02 minutes
	system time =       0.06 seconds =       0.00 minutes
	total time  =          1 seconds =       0.02 minutes
Total time:
	user time   =      21.01 seconds =       0.35 minutes
	system time =       1.21 seconds =       0.02 minutes
	total time  =         17 seconds =       0.28 minutes

*** tstart() called on Barrys-MacBook-Pro.local
*** at Fri May  3 19:16:40 2024


         ------------------------------------------------------------
                                   SCF HESS                          
                          Rob Parrish, Justin Turney,                
                       Andy Simmonett, and Alex Sokolov              
         ------------------------------------------------------------

  ==> Geometry <==

    Molecular point group: c1
    Full point group: C2v

    Geometry (in Angstrom), charge = 0, multiplicity = 1:

       Center              X                  Y                   Z               Mass       
    ------------   -----------------  -----------------  -----------------  -----------------
         O            0.000000000000    -0.000000000000     0.069363737038    15.994914619570
         H            0.760260000000     0.000000000000    -0.550426421322     1.007825032230
         H           -0.760260000000     0.000000000000    -0.550426421322     1.007825032230

  Nuclear repulsion =    8.979857931322545

  ==> Basis Set <==

  -AO BASIS SET INFORMATION:
    Name                   = CC-PVDZ
    Blend                  = CC-PVDZ
    Total number of shells = 12
    Number of primitives   = 32
    Number of AO           = 25
    Number of SO           = 24
    Maximum AM             = 2
    Spherical Harmonics    = TRUE

  -Contraction Scheme:
    Atom   Type   All Primitives // Shells:
   ------ ------ --------------------------
       1     O     17s 4p 1d // 3s 2p 1d 
       2     H     4s 1p // 2s 1p 
       3     H     4s 1p // 2s 1p 

  ==> DirectJKGrad: Integral-Direct SCF Gradients <==

    Gradient:                    2
    J tasked:                  Yes
    K tasked:                  Yes
    wK tasked:                  No
    Integrals threads:           4
    Schwarz Cutoff:          1E-12

  ## JHess (Symmetry 0) ##
  Irrep: 1 Size: 9 x 9

                 1                   2                   3                   4                   5

    1    -3.10436385948537     0.00000000000000     0.00000000000002     1.55218192974268    -0.00000000000000
    2     0.00000000000000    -7.65281554558740    -0.00000000000000    -0.00000000000000     3.82640777279370
    3     0.00000000000002    -0.00000000000000    -4.59724895268091     1.85499734435732     0.00000000000000
    4     1.55218192974268    -0.00000000000000     1.85499734435732    -1.49417970260045     0.00000000000000
    5    -0.00000000000000     3.82640777279370     0.00000000000000     0.00000000000000    -3.81777379238718
    6     1.79672687602749     0.00000000000000     2.29862447634047    -1.82586211019240    -0.00000000000000
    7     1.55218192974268     0.00000000000000    -1.85499734435733    -0.05800222714223    -0.00000000000000
    8     0.00000000000000     3.82640777279370     0.00000000000000    -0.00000000000000    -0.00863398040652
    9    -1.79672687602750     0.00000000000000     2.29862447634044    -0.02913523416492    -0.00000000000000

                 6                   7                   8                   9

    1     1.79672687602749     1.55218192974268     0.00000000000000    -1.79672687602750
    2     0.00000000000000     0.00000000000000     3.82640777279370     0.00000000000000
    3     2.29862447634047    -1.85499734435733     0.00000000000000     2.29862447634044
    4    -1.82586211019240    -0.05800222714223    -0.00000000000000    -0.02913523416492
    5    -0.00000000000000    -0.00000000000000    -0.00863398040652    -0.00000000000000
    6    -2.29269182711473     0.02913523416491    -0.00000000000000    -0.00593264922574
    7     0.02913523416491    -1.49417970260045    -0.00000000000000     1.82586211019242
    8    -0.00000000000000    -0.00000000000000    -3.81777379238718    -0.00000000000000
    9    -0.00593264922574     1.82586211019242    -0.00000000000000    -2.29269182711470



  ## KHess (Symmetry 0) ##
  Irrep: 1 Size: 9 x 9

                 1                   2                   3                   4                   5

    1    -0.25780430012471     0.00000000000000     0.00000000000001     0.12890215006235    -0.00000000000000
    2     0.00000000000000    -0.95879364293462    -0.00000000000000    -0.00000000000000     0.47939682146731
    3     0.00000000000001    -0.00000000000000    -0.48141251078911     0.27769066321771     0.00000000000000
    4     0.12890215006235    -0.00000000000000     0.27769066321771    -0.09968294696503     0.00000000000000
    5    -0.00000000000000     0.47939682146731     0.00000000000000     0.00000000000000    -0.47021192552580
    6     0.32818783378991     0.00000000000000     0.24070625539456    -0.30293924850381    -0.00000000000000
    7     0.12890215006235     0.00000000000000    -0.27769066321771    -0.02921920309732    -0.00000000000000
    8     0.00000000000000     0.47939682146731     0.00000000000000    -0.00000000000000    -0.00918489594151
    9    -0.32818783378992     0.00000000000000     0.24070625539455     0.02524858528610    -0.00000000000000

                 6                   7                   8                   9

    1     0.32818783378991     0.12890215006235     0.00000000000000    -0.32818783378992
    2     0.00000000000000     0.00000000000000     0.47939682146731     0.00000000000000
    3     0.24070625539456    -0.27769066321771     0.00000000000000     0.24070625539455
    4    -0.30293924850381    -0.02921920309732    -0.00000000000000     0.02524858528610
    5    -0.00000000000000    -0.00000000000000    -0.00918489594151    -0.00000000000000
    6    -0.23095093081262    -0.02524858528610     0.00000000000000    -0.00975532458194
    7    -0.02524858528610    -0.09968294696503    -0.00000000000000     0.30293924850382
    8     0.00000000000000    -0.00000000000000    -0.47021192552580    -0.00000000000000
    9    -0.00975532458194     0.30293924850382    -0.00000000000000    -0.23095093081262



  ==> DirectJK: Integral-Direct J/K Matrices <==

    J tasked:                  Yes
    K tasked:                  Yes
    wK tasked:                  No
    Integrals threads:           4
    Screening Type:           CSAM
    Screening Cutoff:        1E-12
    Incremental Fock:           No


   ==> Coupled-Perturbed UHF Solver <==

    Maxiter             =         100
    Convergence         =   1.000E-06
    Number of equations =          18
   -----------------------------------------------------
     Iter   Residual RMS      Max RMS  Remain  Time [s]
   -----------------------------------------------------
    Guess      1.847e+00    1.895e+00       9         0
        1      4.247e-01    6.512e-01       9         0
        2      1.108e-01    1.446e-01       9         0
        3      3.277e-02    4.732e-02       9         0
        4      5.198e-03    9.188e-03       9         0
        5      7.829e-04    1.215e-03       9         0
        6      1.790e-04    2.720e-04       9         0
        7      3.219e-05    5.717e-05       9         0
        8      4.373e-06    8.825e-06       7         0
        9      1.060e-06    2.092e-06       4         0
       10      2.625e-07    3.345e-07       0         0
   -----------------------------------------------------

    Solver has converged.

Nuclear
  ## Nuclear Hessian (Symmetry 0) ##
  Irrep: 1 Size: 9 x 9

                 1                   2                   3                   4                   5

    1     2.01542445935618     0.00000000000000     0.00000000000000    -1.00771222967809    -0.00000000000000
    2     0.00000000000000    -2.51228721167499    -0.00000000000000    -0.00000000000000     1.25614360583750
    3     0.00000000000000    -0.00000000000000     0.49686275231881     1.84557331281216     0.00000000000000
    4    -1.00771222967809    -0.00000000000000     1.84557331281216     1.09201793828509     0.00000000000000
    5    -0.00000000000000     1.25614360583750     0.00000000000000     0.00000000000000    -1.29829646014100
    6     1.84557331281216     0.00000000000000    -0.24843137615941    -1.84557331281216    -0.00000000000000
    7    -1.00771222967809     0.00000000000000    -1.84557331281216    -0.08430570860700     0.00000000000000
    8     0.00000000000000     1.25614360583750     0.00000000000000     0.00000000000000     0.04215285430350
    9    -1.84557331281216     0.00000000000000    -0.24843137615941     0.00000000000000     0.00000000000000

                 6                   7                   8                   9

    1     1.84557331281216    -1.00771222967809     0.00000000000000    -1.84557331281216
    2     0.00000000000000     0.00000000000000     1.25614360583750     0.00000000000000
    3    -0.24843137615941    -1.84557331281216     0.00000000000000    -0.24843137615941
    4    -1.84557331281216    -0.08430570860700     0.00000000000000     0.00000000000000
    5    -0.00000000000000     0.00000000000000     0.04215285430350     0.00000000000000
    6     0.20627852185591     0.00000000000000     0.00000000000000     0.04215285430350
    7     0.00000000000000     1.09201793828509    -0.00000000000000     1.84557331281216
    8     0.00000000000000    -0.00000000000000    -1.29829646014100    -0.00000000000000
    9     0.04215285430350     1.84557331281216    -0.00000000000000     0.20627852185591



Kinetic
  ## Kinetic Hessian (Symmetry 0) ##
  Irrep: 1 Size: 9 x 9

                 1                   2                   3                   4                   5

    1     0.03054829839957     0.00000000000000     0.00000000000000    -0.01527414919978    -0.00000000000000
    2     0.00000000000000    -1.32964743998314    -0.00000000000000    -0.00000000000000     0.66482371999157
    3     0.00000000000000    -0.00000000000000    -0.44926490241150     0.52843511031142     0.00000000000000
    4    -0.01527414919978    -0.00000000000000     0.52843511031142     0.02057559046620     0.00000000000000
    5    -0.00000000000000     0.66482371999157     0.00000000000000     0.00000000000000    -0.66416900986877
    6     0.52843511031142     0.00000000000000     0.22463245120577    -0.52843511031142    -0.00000000000000
    7    -0.01527414919978     0.00000000000000    -0.52843511031142    -0.00530144126641    -0.00000000000000
    8     0.00000000000000     0.66482371999157     0.00000000000000    -0.00000000000000    -0.00065471012280
    9    -0.52843511031142     0.00000000000000     0.22463245120576    -0.00000000000000    -0.00000000000000

                 6                   7                   8                   9

    1     0.52843511031142    -0.01527414919978     0.00000000000000    -0.52843511031142
    2     0.00000000000000     0.00000000000000     0.66482371999157     0.00000000000000
    3     0.22463245120577    -0.52843511031142     0.00000000000000     0.22463245120576
    4    -0.52843511031142    -0.00530144126641    -0.00000000000000    -0.00000000000000
    5    -0.00000000000000    -0.00000000000000    -0.00065471012280    -0.00000000000000
    6    -0.22381748985852    -0.00000000000000    -0.00000000000000    -0.00081496134724
    7    -0.00000000000000     0.02057559046620    -0.00000000000000     0.52843511031142
    8    -0.00000000000000    -0.00000000000000    -0.66416900986877    -0.00000000000000
    9    -0.00081496134724     0.52843511031142    -0.00000000000000    -0.22381748985852



Potential
  ## Potential Hessian (Symmetry 0) ##
  Irrep: 1 Size: 9 x 9

                 1                   2                   3                   4                   5

    1     1.46733982262939    -0.00000000000000    -0.00000000000005    -0.73366991131478     0.00000000000000
    2    -0.00000000000000    11.30651448642643     0.00000000000001     0.00000000000000    -5.65325724321332
    3    -0.00000000000005     0.00000000000001     4.81350574414051    -3.97050981168633    -0.00000000000000
    4    -0.73366991131478     0.00000000000000    -3.97050981168633     0.61787095420828    -0.00000000000001
    5     0.00000000000000    -5.65325724321332    -0.00000000000000    -0.00000000000001     5.68315906310591
    6    -3.97697858643343    -0.00000000000000    -2.40675287206846     3.97374419905988     0.00000000000000
    7    -0.73366991131476    -0.00000000000000     3.97050981168638     0.11579895710650     0.00000000000000
    8    -0.00000000000000    -5.65325724321333    -0.00000000000000     0.00000000000000    -0.02990181989260
    9     3.97697858643348    -0.00000000000000    -2.40675287206842    -0.00323438737355     0.00000000000000

                 6                   7                   8                   9

    1    -3.97697858643343    -0.73366991131476    -0.00000000000000     3.97697858643348
    2    -0.00000000000000    -0.00000000000000    -5.65325724321333    -0.00000000000000
    3    -2.40675287206846     3.97050981168638    -0.00000000000000    -2.40675287206842
    4     3.97374419905988     0.11579895710650     0.00000000000000    -0.00323438737355
    5     0.00000000000000     0.00000000000000    -0.02990181989260     0.00000000000000
    6     2.41875103252110     0.00323438737355    -0.00000000000000    -0.01199816045265
    7     0.00323438737355     0.61787095420826     0.00000000000000    -3.97374419905993
    8    -0.00000000000000     0.00000000000000     5.68315906310593     0.00000000000000
    9    -0.01199816045265    -3.97374419905993     0.00000000000000     2.41875103252107



Overlap
  ## Overlap Hessian (Symmetry 0) ##
  Irrep: 1 Size: 9 x 9

                 1                   2                   3                   4                   5

    1    -0.44772568192942     0.00000000000000     0.00000000000004     0.22386284096472    -0.00000000000000
    2     0.00000000000000    -0.76619344691858    -0.00000000000000    -0.00000000000000     0.38309672345922
    3     0.00000000000004    -0.00000000000000    -0.53490517289983     0.13267117372236     0.00000000000000
    4     0.22386284096472    -0.00000000000000     0.13267117372236    -0.21507849162214     0.00000000000000
    5    -0.00000000000000     0.38309672345922     0.00000000000000     0.00000000000000    -0.38252466208493
    6     0.13267117372236     0.00000000000000     0.26745258644980    -0.13267117372236    -0.00000000000000
    7     0.22386284096470     0.00000000000000    -0.13267117372239    -0.00878434934258    -0.00000000000000
    8     0.00000000000000     0.38309672345924     0.00000000000000    -0.00000000000000    -0.00057206137429
    9    -0.13267117372239     0.00000000000000     0.26745258644980    -0.00000000000000    -0.00000000000000

                 6                   7                   8                   9

    1     0.13267117372236     0.22386284096470     0.00000000000000    -0.13267117372239
    2     0.00000000000000     0.00000000000000     0.38309672345924     0.00000000000000
    3     0.26745258644980    -0.13267117372239     0.00000000000000     0.26745258644980
    4    -0.13267117372236    -0.00878434934258    -0.00000000000000    -0.00000000000000
    5    -0.00000000000000    -0.00000000000000    -0.00057206137429    -0.00000000000000
    6    -0.26671162381087    -0.00000000000000    -0.00000000000000    -0.00074096263894
    7    -0.00000000000000    -0.21507849162212    -0.00000000000000     0.13267117372239
    8    -0.00000000000000    -0.00000000000000    -0.38252466208495    -0.00000000000000
    9    -0.00074096263894     0.13267117372239    -0.00000000000000    -0.26671162381086



Coulomb
  ## Coulomb Hessian (Symmetry 0) ##
  Irrep: 1 Size: 9 x 9

                 1                   2                   3                   4                   5

    1    -3.10436385948537     0.00000000000000     0.00000000000002     1.55218192974268    -0.00000000000000
    2     0.00000000000000    -7.65281554558740    -0.00000000000000    -0.00000000000000     3.82640777279370
    3     0.00000000000002    -0.00000000000000    -4.59724895268091     1.85499734435732     0.00000000000000
    4     1.55218192974268    -0.00000000000000     1.85499734435732    -1.49417970260045     0.00000000000000
    5    -0.00000000000000     3.82640777279370     0.00000000000000     0.00000000000000    -3.81777379238718
    6     1.79672687602749     0.00000000000000     2.29862447634047    -1.82586211019240    -0.00000000000000
    7     1.55218192974268     0.00000000000000    -1.85499734435733    -0.05800222714223    -0.00000000000000
    8     0.00000000000000     3.82640777279370     0.00000000000000    -0.00000000000000    -0.00863398040652
    9    -1.79672687602750     0.00000000000000     2.29862447634044    -0.02913523416492    -0.00000000000000

                 6                   7                   8                   9

    1     1.79672687602749     1.55218192974268     0.00000000000000    -1.79672687602750
    2     0.00000000000000     0.00000000000000     3.82640777279370     0.00000000000000
    3     2.29862447634047    -1.85499734435733     0.00000000000000     2.29862447634044
    4    -1.82586211019240    -0.05800222714223    -0.00000000000000    -0.02913523416492
    5    -0.00000000000000    -0.00000000000000    -0.00863398040652    -0.00000000000000
    6    -2.29269182711473     0.02913523416491    -0.00000000000000    -0.00593264922574
    7     0.02913523416491    -1.49417970260045    -0.00000000000000     1.82586211019242
    8    -0.00000000000000    -0.00000000000000    -3.81777379238718    -0.00000000000000
    9    -0.00593264922574     1.82586211019242    -0.00000000000000    -2.29269182711470



Exchange
  ## Exchange Hessian (Symmetry 0) ##
  Irrep: 1 Size: 9 x 9

                 1                   2                   3                   4                   5

    1     0.25780430012471    -0.00000000000000    -0.00000000000001    -0.12890215006235     0.00000000000000
    2    -0.00000000000000     0.95879364293462     0.00000000000000     0.00000000000000    -0.47939682146731
    3    -0.00000000000001     0.00000000000000     0.48141251078911    -0.27769066321771    -0.00000000000000
    4    -0.12890215006235     0.00000000000000    -0.27769066321771     0.09968294696503    -0.00000000000000
    5     0.00000000000000    -0.47939682146731    -0.00000000000000    -0.00000000000000     0.47021192552580
    6    -0.32818783378991    -0.00000000000000    -0.24070625539456     0.30293924850381     0.00000000000000
    7    -0.12890215006235    -0.00000000000000     0.27769066321771     0.02921920309732     0.00000000000000
    8    -0.00000000000000    -0.47939682146731    -0.00000000000000     0.00000000000000     0.00918489594151
    9     0.32818783378992    -0.00000000000000    -0.24070625539455    -0.02524858528610     0.00000000000000

                 6                   7                   8                   9

    1    -0.32818783378991    -0.12890215006235    -0.00000000000000     0.32818783378992
    2    -0.00000000000000    -0.00000000000000    -0.47939682146731    -0.00000000000000
    3    -0.24070625539456     0.27769066321771    -0.00000000000000    -0.24070625539455
    4     0.30293924850381     0.02921920309732     0.00000000000000    -0.02524858528610
    5     0.00000000000000     0.00000000000000     0.00918489594151     0.00000000000000
    6     0.23095093081262     0.02524858528610    -0.00000000000000     0.00975532458194
    7     0.02524858528610     0.09968294696503     0.00000000000000    -0.30293924850382
    8    -0.00000000000000     0.00000000000000     0.47021192552580     0.00000000000000
    9     0.00975532458194    -0.30293924850382     0.00000000000000     0.23095093081262



Response
  ## UHF Response (Symmetry 0) ##
  Irrep: 1 Size: 9 x 9

                 1                   2                   3                   4                   5

    1     0.39217503081160    -0.00000000000000     0.00000000000000    -0.19608751540580     0.00000000000000
    2    -0.00000000000000     0.03687029363912     0.00000000000000     0.00000000000000    -0.01843514681956
    3     0.00000000000000     0.00000000000000     0.26586576630325     0.05708626601248    -0.00000000000000
    4    -0.19608751540580     0.00000000000000     0.05708626601248     0.22000386420885    -0.00000000000000
    5     0.00000000000000    -0.01843514681956    -0.00000000000000    -0.00000000000000     0.02832688456692
    6     0.23408856180206    -0.00000000000000    -0.13293288315162    -0.14558741390727    -0.00000000000000
    7    -0.19608751540579    -0.00000000000000    -0.05708626601248    -0.02391634880305    -0.00000000000000
    8    -0.00000000000000    -0.01843514681956    -0.00000000000000    -0.00000000000000    -0.00989173774736
    9    -0.23408856180206    -0.00000000000000    -0.13293288315162     0.08850114789479     0.00000000000000

                 6                   7                   8                   9

    1     0.23408856180206    -0.19608751540579    -0.00000000000000    -0.23408856180206
    2    -0.00000000000000    -0.00000000000000    -0.01843514681956    -0.00000000000000
    3    -0.13293288315162    -0.05708626601248    -0.00000000000000    -0.13293288315162
    4    -0.14558741390727    -0.02391634880305    -0.00000000000000     0.08850114789479
    5    -0.00000000000000    -0.00000000000000    -0.00989173774736     0.00000000000000
    6     0.14962379324679    -0.08850114789479     0.00000000000000    -0.01669091009517
    7    -0.08850114789479     0.22000386420885     0.00000000000000     0.14558741390727
    8     0.00000000000000     0.00000000000000     0.02832688456691     0.00000000000000
    9    -0.01669091009517     0.14558741390727     0.00000000000000     0.14962379324679



  ## Total Hessian (Symmetry 0) ##
  Irrep: 1 Size: 9 x 9

                 1                   2                   3                   4                   5

    1     0.61120236990665     0.00000000000000     0.00000000000000    -0.30560118495341    -0.00000000000000
    2     0.00000000000000     0.04123477883606    -0.00000000000000    -0.00000000000000    -0.02061738941820
    3     0.00000000000000    -0.00000000000000     0.47622774555945     0.17056273231169     0.00000000000000
    4    -0.30560118495341    -0.00000000000000     0.17056273231169     0.34089309991085     0.00000000000000
    5    -0.00000000000000    -0.02061738941820     0.00000000000000     0.00000000000000     0.01893394871675
    6     0.23232861445213     0.00000000000000    -0.23811387277800    -0.20144567338191    -0.00000000000000
    7    -0.30560118495340     0.00000000000000    -0.17056273231169    -0.03529191495745    -0.00000000000000
    8     0.00000000000000    -0.02061738941819     0.00000000000000     0.00000000000000     0.00168344070145
    9    -0.23232861445213     0.00000000000000    -0.23811387277800     0.03088294107022    -0.00000000000000

                 6                   7                   8                   9

    1     0.23232861445213    -0.30560118495340     0.00000000000000    -0.23232861445213
    2     0.00000000000000     0.00000000000000    -0.02061738941819     0.00000000000000
    3    -0.23811387277800    -0.17056273231169     0.00000000000000    -0.23811387277800
    4    -0.20144567338191    -0.03529191495745     0.00000000000000     0.03088294107022
    5    -0.00000000000000    -0.00000000000000     0.00168344070145    -0.00000000000000
    6     0.22238333765230    -0.03088294107022    -0.00000000000000     0.01573053512570
    7    -0.03088294107022     0.34089309991085    -0.00000000000000     0.20144567338191
    8    -0.00000000000000    -0.00000000000000     0.01893394871676    -0.00000000000000
    9     0.01573053512570     0.20144567338191    -0.00000000000000     0.22238333765231




*** tstop() called on Barrys-MacBook-Pro.local at Fri May  3 19:16:40 2024
Module time:
	user time   =       2.55 seconds =       0.04 minutes
	system time =       0.15 seconds =       0.00 minutes
	total time  =          0 seconds =       0.00 minutes
Total time:
	user time   =      23.56 seconds =       0.39 minutes
	system time =       1.36 seconds =       0.02 minutes
	total time  =         17 seconds =       0.28 minutes


  ==> Harmonic Vibrational Analysis <==

  non-mass-weighted Hessian:       Symmetric? True   Hermitian? True   Lin Dep Dim?  0 (0)
  projection of translations (True) and rotations (False) removed 3 degrees of freedom (6)
  total projector:                 Symmetric? True   Hermitian? True   Lin Dep Dim?  3 (3)
  mass-weighted Hessian:           Symmetric? True   Hermitian? True   Lin Dep Dim?  0 (0)
  pre-proj  low-frequency mode:    0.0000i [cm^-1]
  pre-proj  low-frequency mode:    0.0000i [cm^-1]
  pre-proj  low-frequency mode:    0.0022  [cm^-1]
  pre-proj  low-frequency mode:  672.5315  [cm^-1]
  pre-proj  low-frequency mode:  714.0887  [cm^-1]
  pre-proj  low-frequency mode:  780.1916  [cm^-1]
  pre-proj  all modes:['0.0007i' '0.0005i' '0.0022' '672.5315' '714.0887' '780.1916' '1869.2860'
 '3660.4782' '3732.4034']
  projected mass-weighted Hessian: Symmetric? True   Hermitian? True   Lin Dep Dim?  3 (3)
  post-proj low-frequency mode:    0.0000i [cm^-1] (TR)
  post-proj low-frequency mode:    0.0000  [cm^-1] (TR)
  post-proj low-frequency mode:    0.0000  [cm^-1] (TR)
  post-proj low-frequency mode:  672.5315  [cm^-1] (V)
  post-proj low-frequency mode:  714.0887  [cm^-1] (V)
  post-proj low-frequency mode:  780.1916  [cm^-1] (V)
  post-proj  all modes:['0.0000i' '0.0000' '0.0000' '672.5315' '714.0887' '780.1916' '1869.2860'
 '3660.4782' '3732.4034']

  Note that "Vibration"s include 3 un-projected rotation-like modes.
  Vibration                       4                   5                   6           
  Freq [cm^-1]                 672.5315            714.0887            780.1916       
  Irrep                           A                   A                   A           
  Reduced mass [u]              1.0078              1.0480              1.1259        
  Force const [mDyne/A]         0.2686              0.3149              0.4038        
  Turning point v=0 [a0]        0.4215              0.4011              0.3702        
  RMS dev v=0 [a0 u^1/2]        0.2992              0.2903              0.2778        
  Char temp [K]                967.6231           1027.4146           1122.5219       
  ----------------------------------------------------------------------------------
      1   O                0.00 -0.00 -0.00   -0.05  0.00 -0.00    0.00 -0.09 -0.00   
      2   H               -0.00  0.71 -0.00    0.41  0.00  0.57   -0.00  0.70 -0.00   
      3   H               -0.00 -0.71  0.00    0.41 -0.00 -0.57   -0.00  0.70  0.00   

  Vibration                       7                   8                   9           
  Freq [cm^-1]                1869.2860           3660.4782           3732.4034       
  Irrep                           A                   A                   A           
  Reduced mass [u]              1.0807              1.0470              1.0796        
  Force const [mDyne/A]         2.2249              8.2657              8.8614        
  Turning point v=0 [a0]        0.2441              0.1772              0.1729        
  RMS dev v=0 [a0 u^1/2]        0.1795              0.1282              0.1270        
  Char temp [K]               2689.4864           5266.6132           5370.0975       
  ----------------------------------------------------------------------------------
      1   O                0.00  0.00 -0.07   -0.00  0.00  0.05   -0.07 -0.00 -0.00   
      2   H                0.44 -0.00  0.55    0.58 -0.00 -0.41    0.55  0.00 -0.44   
      3   H               -0.44 -0.00  0.55   -0.58  0.00 -0.41    0.55 -0.00  0.44   

  ==> Thermochemistry Components <==

  Entropy, S
    Electronic S                             0.000 [cal/(mol K)]        0.000 [J/(mol K)]       0.00000000 [mEh/K] (multiplicity = 1)
    Translational S                         34.608 [cal/(mol K)]      144.801 [J/(mol K)]       0.05515177 [mEh/K] (mol. weight = 18.0106 [u], P = 101325.00 [Pa])
    Rotational S                            10.612 [cal/(mol K)]       44.401 [J/(mol K)]       0.01691128 [mEh/K] (symmetry no. = 2)
    Vibrational S                            0.857 [cal/(mol K)]        3.584 [J/(mol K)]       0.00136511 [mEh/K]
  Total S                                   46.077 [cal/(mol K)]      192.786 [J/(mol K)]       0.07342816 [mEh/K]
  Correction S                               0.000 [cal/(mol K)]        0.000 [J/(mol K)]       0.00000000 [mEh/K]

  Constant volume heat capacity, Cv
    Electronic Cv                            0.000 [cal/(mol K)]        0.000 [J/(mol K)]       0.00000000 [mEh/K]
    Translational Cv                         2.981 [cal/(mol K)]       12.472 [J/(mol K)]       0.00475022 [mEh/K]
    Rotational Cv                            2.981 [cal/(mol K)]       12.472 [J/(mol K)]       0.00475022 [mEh/K]
    Vibrational Cv                           2.389 [cal/(mol K)]        9.994 [J/(mol K)]       0.00380669 [mEh/K]
  Total Cv                                   8.350 [cal/(mol K)]       34.938 [J/(mol K)]       0.01330712 [mEh/K]
  Correction Cv                              0.000 [cal/(mol K)]        0.000 [J/(mol K)]       0.00000000 [mEh/K]

  Constant pressure heat capacity, Cp
    Electronic Cp                            0.000 [cal/(mol K)]        0.000 [J/(mol K)]       0.00000000 [mEh/K]
    Translational Cp                         4.968 [cal/(mol K)]       20.786 [J/(mol K)]       0.00791703 [mEh/K]
    Rotational Cp                            2.981 [cal/(mol K)]       12.472 [J/(mol K)]       0.00475022 [mEh/K]
    Vibrational Cp                           2.389 [cal/(mol K)]        9.994 [J/(mol K)]       0.00380669 [mEh/K]
  Total Cp                                  10.338 [cal/(mol K)]       43.252 [J/(mol K)]       0.01647393 [mEh/K]
  Correction Cp                              0.000 [cal/(mol K)]        0.000 [J/(mol K)]       0.00000000 [mEh/K]

  ==> Thermochemistry Energy Analysis <==

  Raw electronic energy, E_e
  Total E_e, Electronic energy at well bottom                                           -76.02456131 [Eh]

  Zero-point vibrational energy, ZPVE = Sum_i omega_i / 2,  E_0 = E_e + ZPVE
    Vibrational ZPVE                        16.339 [kcal/mol]       68.360 [kJ/mol]       0.02603713 [Eh]        5714.490 [cm^-1]
  Correction ZPVE to E_e                    16.339 [kcal/mol]       68.360 [kJ/mol]       0.02603713 [Eh]        5714.490 [cm^-1]
  Total E_0, Enthalpy at 0 [K]                                                          -75.99852418 [Eh]
  *** Absolute enthalpy, not an enthalpy of formation ***

  Thermal (internal) energy, E (includes ZPVE and finite-temperature corrections)
    Electronic contrib to E beyond E_e       0.000 [kcal/mol]        0.000 [kJ/mol]       0.00000000 [Eh]
    Translational contrib to E               0.889 [kcal/mol]        3.718 [kJ/mol]       0.00141628 [Eh]
    Rotational contrib to E                  0.889 [kcal/mol]        3.718 [kJ/mol]       0.00141628 [Eh]
    Vibrational contrib to E                16.537 [kcal/mol]       69.192 [kJ/mol]       0.02635379 [Eh]
  Correction E                              18.315 [kcal/mol]       76.629 [kJ/mol]       0.02918635 [Eh]
  Total E, Thermal (internal) energy at  298.15 [K]                                     -75.99537497 [Eh]

  Enthalpy, H_trans = E_trans + k_B * T = E_trans + P * V
    Electronic contrib to H beyond E_e       0.000 [kcal/mol]        0.000 [kJ/mol]       0.00000000 [Eh]
    Translational contrib to H               1.481 [kcal/mol]        6.197 [kJ/mol]       0.00236046 [Eh]
    Rotational contrib to H                  0.889 [kcal/mol]        3.718 [kJ/mol]       0.00141628 [Eh]
    Vibrational contrib to H                16.537 [kcal/mol]       69.192 [kJ/mol]       0.02635379 [Eh]
  Correction H                              18.907 [kcal/mol]       79.108 [kJ/mol]       0.03013053 [Eh]
  Total H, Enthalpy at  298.15 [K]                                                      -75.99443078 [Eh]
  *** Absolute enthalpy, not an enthalpy of formation ***

  Gibbs free energy, G = H - T * S
    Electronic contrib to G beyond E_e       0.000 [kcal/mol]        0.000 [kJ/mol]       0.00000000 [Eh]
    Translational contrib to G              -8.837 [kcal/mol]      -36.975 [kJ/mol]      -0.01408304 [Eh]
    Rotational contrib to G                 -2.275 [kcal/mol]       -9.520 [kJ/mol]      -0.00362582 [Eh]
    Vibrational contrib to G                16.282 [kcal/mol]       68.123 [kJ/mol]       0.02594679 [Eh]
  Correction G                               5.169 [kcal/mol]       21.629 [kJ/mol]       0.00823793 [Eh]
  Total G, Gibbs energy at  298.15 [K]                                                  -76.01632339 [Eh]
  *** Absolute Gibbs energy, not a free energy of formation ***


    			-----------------------------------------

    			 OPTKING 3.0: for geometry optimizations 

    			     By R.A. King, Bethel University     

    			        with contributions from          

    			    A.V. Copan, J. Cayton, A. Heide      

    			-----------------------------------------

    
	                            ===> Fragment 1 <== 

	 Z (Atomic Numbers)          Masses                          Geom                  
	       8.000000            15.994915          0.00000000 -0.00000000  0.13107847   
	       1.000000             1.007825          1.43668318  0.00000000 -1.04015519   
	       1.000000             1.007825         -1.43668318  0.00000000 -1.04015519   

	 - Coordinate -           - BOHR/RAD -       - ANG/DEG -
	 R(1,2)           =         1.853604           0.980885
	 R(1,3)           =         1.853604           0.980885
	 B(2,1,3)         =         1.773670         101.623789


	        --- Internal Coordinate Step in ANG or DEG, aJ/ANG or AJ/DEG ---
	-------------------------------------------------------------------------------
	           Coordinate      Previous         Force          Change          New 
	           ----------      --------        ------          ------        ------
	               R(1,2)       0.98088       -0.28397       -0.03848       0.94241
	               R(1,3)       0.98088       -0.28397       -0.03848       0.94241
	             B(2,1,3)     101.62379        0.00043        2.61857     104.24236
	-------------------------------------------------------------------------------

	                                 ==> Convergence Check <==                                  
    
	Measures of convergence in internal coordinates in au.
    
	Criteria marked as inactive (o), active & met (*), and active & unmet ( ).

	----------------------------------------------------------------------------------------------
	   Step    Total Energy     Delta E     Max Force     RMS Force      Max Disp      RMS Disp   
	----------------------------------------------------------------------------------------------
	  Convergence Criteria     1.00e-06 *    3.00e-04 *             o    1.20e-03 *             o
	----------------------------------------------------------------------------------------------
	     1     -76.02456131   -7.60e+01      3.45e-02      2.83e-02 o    7.27e-02      6.50e-02 o  ~
	----------------------------------------------------------------------------------------------

Next Geometry in Ang 
	Fragment 1 (Ang)

	    O   0.0000000000  -0.0000000000   0.0419248639
	    H   0.7438524774   0.0000000000  -0.5367069848
	    H  -0.7438524774   0.0000000000  -0.5367069848


    Structure for next step:
    Molecular point group: c1
    Full point group: C2v

    Geometry (in Angstrom), charge = 0, multiplicity = 1:

    O            0.000000000000    -0.000000000000     0.064757510029
    H            0.743852477358     0.000000000000    -0.513874338680
    H           -0.743852477358     0.000000000000    -0.513874338680


Scratch directory: /tmp/
gradient() will perform analytic gradient computation.
   => Libint2 <=

    Primary   basis highest AM E, G, H:  5, 4, 3
    Auxiliary basis highest AM E, G, H:  6, 5, 4
    Onebody   basis highest AM E, G, H:  6, 5, 4
    Solid Harmonics ordering:            Gaussian

*** tstart() called on Barrys-MacBook-Pro.local
*** at Fri May  3 19:16:40 2024

   => Loading Basis Set <=

    Name: CC-PVDZ
    Role: ORBITAL
    Keyword: BASIS
    atoms 1   entry O          line   198 file /Users/blink/psi4conda/share/psi4/basis/cc-pvdz.gbs 
    atoms 2-3 entry H          line    22 file /Users/blink/psi4conda/share/psi4/basis/cc-pvdz.gbs 


         ---------------------------------------------------------
                                   SCF
               by Justin Turney, Rob Parrish, Andy Simmonett
                          and Daniel G. A. Smith
                              UHF Reference
                        4 Threads,    953 MiB Core
         ---------------------------------------------------------

  ==> Geometry <==

    Molecular point group: c1
    Full point group: C2v

    Geometry (in Angstrom), charge = 0, multiplicity = 1:

       Center              X                  Y                   Z               Mass       
    ------------   -----------------  -----------------  -----------------  -----------------
         O            0.000000000000    -0.000000000000     0.064757510029    15.994914619570
         H            0.743852477358     0.000000000000    -0.513874338680     1.007825032230
         H           -0.743852477358     0.000000000000    -0.513874338680     1.007825032230

  Running in c1 symmetry.

  Rotational constants: A =     28.12691  B =     15.11499  C =      9.83162 [cm^-1]
  Rotational constants: A = 843223.68647  B = 453135.86271  C = 294744.53509 [MHz]
  Nuclear repulsion =    9.339964714789549

  Charge       = 0
  Multiplicity = 1
  Electrons    = 10
  Nalpha       = 5
  Nbeta        = 5

  ==> Algorithm <==

  SCF Algorithm Type is DIRECT.
  DIIS enabled.
  MOM disabled.
  Fractional occupation disabled.
  Guess Type is READ.
  Energy threshold   = 1.00e-08
  Density threshold  = 1.00e-08
  Integral threshold = 1.00e-12

  ==> Primary Basis <==

  -AO BASIS SET INFORMATION:
    Name                   = CC-PVDZ
    Blend                  = CC-PVDZ
    Total number of shells = 12
    Number of primitives   = 32
    Number of AO           = 25
    Number of SO           = 24
    Maximum AM             = 2
    Spherical Harmonics    = TRUE

  -Contraction Scheme:
    Atom   Type   All Primitives // Shells:
   ------ ------ --------------------------
       1     O     17s 4p 1d // 3s 2p 1d 
       2     H     4s 1p // 2s 1p 
       3     H     4s 1p // 2s 1p 

   => Loading Basis Set <=

    Name: (CC-PVDZ AUX)
    Role: JKFIT
    Keyword: DF_BASIS_SCF
    atoms 1   entry O          line   221 file /Users/blink/psi4conda/share/psi4/basis/cc-pvdz-jkfit.gbs 
    atoms 2-3 entry H          line    51 file /Users/blink/psi4conda/share/psi4/basis/cc-pvdz-jkfit.gbs 

   => Loading Basis Set <=

    Name: CC-PVDZ
    Role: ORBITAL
    Keyword: BASIS
    atoms 1   entry O          line   198 file /Users/blink/psi4conda/share/psi4/basis/cc-pvdz.gbs 
    atoms 2-3 entry H          line    22 file /Users/blink/psi4conda/share/psi4/basis/cc-pvdz.gbs 

  Reading orbitals from file /tmp/p4_output.default.11282.180.npy, no projection.

  Starting with a DF guess...

  ==> Integral Setup <==

  DFHelper Memory: AOs need 0.001 GiB; user supplied 0.698 GiB. 
  Using in-core AOs.

  ==> MemDFJK: Density-Fitted J/K Matrices <==

    J tasked:                   Yes
    K tasked:                   Yes
    wK tasked:                   No
    OpenMP threads:               4
    Memory [MiB]:               715
    Algorithm:                 Core
    Schwarz Cutoff:           1E-12
    Mask sparsity (%):       0.0000
    Fitting Condition:        1E-10

   => Auxiliary Basis Set <=

  -AO BASIS SET INFORMATION:
    Name                   = (CC-PVDZ AUX)
    Blend                  = CC-PVDZ-JKFIT
    Total number of shells = 42
    Number of primitives   = 42
    Number of AO           = 131
    Number of SO           = 116
    Maximum AM             = 3
    Spherical Harmonics    = TRUE

  -Contraction Scheme:
    Atom   Type   All Primitives // Shells:
   ------ ------ --------------------------
       1     O     10s 7p 5d 2f // 10s 7p 5d 2f 
       2     H     4s 3p 2d // 4s 3p 2d 
       3     H     4s 3p 2d // 4s 3p 2d 

  Minimum eigenvalue in the overlap matrix is 3.3108691144E-02.
  Reciprocal condition number of the overlap matrix is 8.8449932347E-03.
    Using symmetric orthogonalization.

  ==> Pre-Iterations <==

  SCF Guess: Orbitals guess was supplied from a previous computation.

   -------------------------------------------------------
    Irrep   Nso     Nmo     Nalpha   Nbeta   Ndocc  Nsocc
   -------------------------------------------------------
     A         24      24       5       5       5       0
   -------------------------------------------------------
    Total      24      24       5       5       5       0
   -------------------------------------------------------

  ==> Iterations <==

                           Total Energy        Delta E     RMS |[F,P]|

   @DF-UHF iter   0:   -76.08352570131166   -7.60835e+01   5.96504e-03 
   @DF-UHF iter   1:   -76.02676375283535    5.67619e-02   8.30771e-04 DIIS/ADIIS
   @DF-UHF iter   2:   -76.02695012647924   -1.86374e-04   4.27537e-04 DIIS/ADIIS
   @DF-UHF iter   3:   -76.02698747943005   -3.73530e-05   8.07329e-05 DIIS
   @DF-UHF iter   4:   -76.02699198669619   -4.50727e-06   2.52868e-05 DIIS
   @DF-UHF iter   5:   -76.02699245684803   -4.70152e-07   5.37894e-06 DIIS
   @DF-UHF iter   6:   -76.02699248202870   -2.51807e-08   7.47968e-07 DIIS
   @DF-UHF iter   7:   -76.02699248237823   -3.49530e-10   1.11869e-07 DIIS
   @DF-UHF iter   8:   -76.02699248238528   -7.04858e-12   1.45462e-08 DIIS
   @DF-UHF iter   9:   -76.02699248238541   -1.27898e-13   1.28665e-09 DIIS

  DF guess converged.

  ==> DirectJK: Integral-Direct J/K Matrices <==

    J tasked:                  Yes
    K tasked:                  Yes
    wK tasked:                  No
    Integrals threads:           4
    Screening Type:           CSAM
    Screening Cutoff:        1E-12
    Incremental Fock:           No

   @UHF iter  10:   -76.02701327670353   -7.60270e+01   6.83608e-06 DIIS
   @UHF iter  11:   -76.02701328870498   -1.20015e-08   1.11435e-06 DIIS
   @UHF iter  12:   -76.02701328908293   -3.77952e-10   2.16066e-07 DIIS
   @UHF iter  13:   -76.02701328909662   -1.36851e-11   6.05189e-08 DIIS
   @UHF iter  14:   -76.02701328909775   -1.13687e-12   2.49760e-08 DIIS
   @UHF iter  15:   -76.02701328909791   -1.56319e-13   2.27851e-09 DIIS
  Energy and wave function converged.


  ==> Post-Iterations <==

   @Spin Contamination Metric:   1.243449788E-14
   @S^2 Expected:                0.000000000E+00
   @S^2 Observed:                1.243449788E-14
   @S   Expected:                0.000000000E+00
   @S   Observed:                0.000000000E+00

    Orbital Energies [Eh]
    ---------------------

    Alpha Occupied:                                                       

       1A    -20.547936     2A     -1.344619     3A     -0.706819  
       4A     -0.569890     5A     -0.494354  

    Alpha Virtual:                                                        

       6A      0.187962     7A      0.258405     8A      0.799248  
       9A      0.869901    10A      1.162659    11A      1.200254  
      12A      1.252792    13A      1.439948    14A      1.481175  
      15A      1.676217    16A      1.863694    17A      1.953249  
      18A      2.487648    19A      2.529008    20A      3.300418  
      21A      3.352639    22A      3.531505    23A      3.880185  
      24A      4.166156  

    Beta Occupied:                                                        

       1A    -20.547936     2A     -1.344619     3A     -0.706819  
       4A     -0.569890     5A     -0.494354  

    Beta Virtual:                                                         

       6A      0.187962     7A      0.258405     8A      0.799248  
       9A      0.869901    10A      1.162659    11A      1.200254  
      12A      1.252792    13A      1.439948    14A      1.481175  
      15A      1.676217    16A      1.863694    17A      1.953249  
      18A      2.487648    19A      2.529008    20A      3.300418  
      21A      3.352639    22A      3.531505    23A      3.880185  
      24A      4.166156  

    Final Occupation by Irrep:
              A 
    DOCC [     5 ]
    SOCC [     0 ]
    NA   [     5 ]
    NB   [     5 ]

  @UHF Final Energy:   -76.02701328909791

   => Energetics <=

    Nuclear Repulsion Energy =              9.3399647147895486
    One-Electron Energy =                -123.4067189347296392
    Two-Electron Energy =                  38.0397409308421857
    Total Energy =                        -76.0270132890979085

  UHF NO Occupations:
  HONO-2 :    3  A 2.0000000
  HONO-1 :    4  A 2.0000000
  HONO-0 :    5  A 2.0000000
  LUNO+0 :    6  A 0.0000000
  LUNO+1 :    7  A 0.0000000
  LUNO+2 :    8  A 0.0000000
  LUNO+3 :    9  A 0.0000000


Computation Completed


Properties will be evaluated at   0.000000,   0.000000,   0.000000 [a0]

Properties computed using the SCF density matrix


 Multipole Moments:

 ------------------------------------------------------------------------------------
     Multipole            Electronic (a.u.)      Nuclear  (a.u.)        Total (a.u.)
 ------------------------------------------------------------------------------------

 L = 1.  Multiply by 2.5417464519 to convert [e a0] to [Debye]
 Dipole X            :          0.0000000           -0.0000000           -0.0000000
 Dipole Y            :         -0.0000000            0.0000000           -0.0000000
 Dipole Z            :          0.1582163           -0.9631719           -0.8049555
 Magnitude           :                                                    0.8049555

 ------------------------------------------------------------------------------------

*** tstop() called on Barrys-MacBook-Pro.local at Fri May  3 19:16:41 2024
Module time:
	user time   =       1.51 seconds =       0.03 minutes
	system time =       0.08 seconds =       0.00 minutes
	total time  =          1 seconds =       0.02 minutes
Total time:
	user time   =      25.35 seconds =       0.42 minutes
	system time =       1.45 seconds =       0.02 minutes
	total time  =         18 seconds =       0.30 minutes

*** tstart() called on Barrys-MacBook-Pro.local
*** at Fri May  3 19:16:41 2024


         ------------------------------------------------------------
[...]
	  Convergence Criteria     1.00e-06 *    3.00e-04 *             o    1.20e-03 *             o
	----------------------------------------------------------------------------------------------
	     4     -76.02705350   -6.48e-07 *    6.97e-05 *    5.83e-05 o    1.22e-04 *    1.10e-04 o  ~
	----------------------------------------------------------------------------------------------

Next Geometry in Ang 
	Fragment 1 (Ang)

	    O  -0.0000000000  -0.0000000000   0.0647596090
	    H   0.7487937431   0.0000000000  -0.5138410320
	    H  -0.7487937431   0.0000000000  -0.5138410320


    Final optimized geometry and variables:
    Molecular point group: c1
    Full point group: C2v

    Geometry (in Angstrom), charge = 0, multiplicity = 1:

    O            0.000000000000    -0.000000000000     0.064752889388
    H            0.748719878429     0.000000000000    -0.513837672219
    H           -0.748719878429     0.000000000000    -0.513837672219



Properties will be evaluated at   0.000000,   0.000000,   0.000000 [a0]
OEProp: No title given, name of density matrix used for the following properties is 'SCF alpha density'

 Multipole Moments:

 ------------------------------------------------------------------------------------
     Multipole            Electronic (a.u.)      Nuclear  (a.u.)        Total (a.u.)
 ------------------------------------------------------------------------------------

 L = 1.  Multiply by 2.5417464519 to convert [e a0] to [Debye]
 Dipole X            :         -0.0000000           -0.0000000           -0.0000000
 Dipole Y            :         -0.0000000            0.0000000           -0.0000000
 Dipole Z            :          0.1588416           -0.9631031           -0.8042615
 Magnitude           :                                                    0.8042615

 L = 2.  Multiply by 1.3450342976 to convert [e a0^2] to [Debye ang]
 Quadrupole XX       :         -7.0823660            4.0037454           -3.0786205
 Quadrupole XY       :         -0.0000000           -0.0000000           -0.0000000
 Quadrupole XZ       :         -0.0000000            0.0000000            0.0000000
 Quadrupole YY       :         -5.2104213            0.0000000           -5.2104213
 Quadrupole YZ       :          0.0000000           -0.0000000            0.0000000
 Quadrupole ZZ       :         -6.2251030            2.0055164           -4.2195866
 Traceless XX        :         -0.9097359            2.0006582            1.0909223
 Traceless YY        :          0.9622088           -2.0030873           -1.0408785
 Traceless ZZ        :         -0.0524729            0.0024291           -0.0500438

 L = 3.  Multiply by 0.7117614979 to convert [e a0^3] to [Debye ang^2]
 Octupole XXX        :         -0.0000000           -0.0000000           -0.0000000
 Octupole XXY        :         -0.0000000            0.0000000           -0.0000000
 Octupole XXZ        :          2.4146827           -3.8876868           -1.4730041
 Octupole XYY        :         -0.0000000           -0.0000000           -0.0000000
 Octupole XYZ        :          0.0000000            0.0000000            0.0000000
 Octupole XZZ        :          0.0000000           -0.0000000           -0.0000000
 Octupole YYY        :         -0.0000000            0.0000000           -0.0000000
 Octupole YYZ        :          0.0728060           -0.0000000            0.0728060
 Octupole YZZ        :         -0.0000000            0.0000000           -0.0000000
 Octupole ZZZ        :          1.3657937           -1.8164101           -0.4506164

 L = 4.  Multiply by 0.3766479641 to convert [e a0^4] to [Debye ang^3]
 Hexadecapole XXXX   :        -22.4347781            8.0149888          -14.4197893
 Hexadecapole XXXY   :         -0.0000000           -0.0000000           -0.0000000
 Hexadecapole XXXZ   :         -0.0000000            0.0000000            0.0000000
 Hexadecapole XXYY   :         -5.2914000            0.0000000           -5.2914000
 Hexadecapole XXYZ   :          0.0000000           -0.0000000            0.0000000
 Hexadecapole XXZZ   :         -7.4832560            3.7749923           -3.7082637
 Hexadecapole XYYY   :          0.0000000           -0.0000000            0.0000000
 Hexadecapole XYYZ   :          0.0000000            0.0000000            0.0000000
 Hexadecapole XYZZ   :         -0.0000000           -0.0000000           -0.0000000
 Hexadecapole XZZZ   :         -0.0000000            0.0000000            0.0000000
 Hexadecapole YYYY   :        -12.7968989            0.0000000          -12.7968989
 Hexadecapole YYYZ   :          0.0000000           -0.0000000            0.0000000
 Hexadecapole YYZZ   :         -4.7922005            0.0000000           -4.7922005
 Hexadecapole YZZZ   :          0.0000000           -0.0000000            0.0000000
 Hexadecapole ZZZZ   :        -16.6519305            1.7797832          -14.8721473

 ------------------------------------------------------------------------------------

 Electrostatic potentials at the nuclear coordinates:
 ---------------------------------------------
   Center     Electrostatic Potential (a.u.)
 ---------------------------------------------
    1  O           -22.344971495880
    2  H            -1.004684624994
    3  H            -1.004684624994
 ---------------------------------------------

 Multipole Moments:

 ------------------------------------------------------------------------------------
     Multipole            Electronic (a.u.)      Nuclear  (a.u.)        Total (a.u.)
 ------------------------------------------------------------------------------------

 L = 1.  Multiply by 2.5417464519 to convert [e a0] to [Debye]
 Dipole X            :         -0.0000000           -0.0000000           -0.0000000
 Dipole Y            :         -0.0000000            0.0000000           -0.0000000
 Dipole Z            :          0.1588416           -0.9631031           -0.8042615
 Magnitude           :                                                    0.8042615

 L = 2.  Multiply by 1.3450342976 to convert [e a0^2] to [Debye ang]
 Quadrupole XX       :         -7.0823660            4.0037454           -3.0786205
 Quadrupole XY       :         -0.0000000           -0.0000000           -0.0000000
 Quadrupole XZ       :         -0.0000000            0.0000000            0.0000000
 Quadrupole YY       :         -5.2104213            0.0000000           -5.2104213
 Quadrupole YZ       :          0.0000000           -0.0000000            0.0000000
 Quadrupole ZZ       :         -6.2251030            2.0055164           -4.2195866
 Traceless XX        :         -0.9097359            2.0006582            1.0909223
 Traceless YY        :          0.9622088           -2.0030873           -1.0408785
 Traceless ZZ        :         -0.0524729            0.0024291           -0.0500438

 ------------------------------------------------------------------------------------
  Mulliken Charges: (a.u.)
   Center  Symbol    Alpha    Beta     Spin     Total
       1     O     4.14607  4.14607  0.00000 -0.29215
       2     H     0.42696  0.42696 -0.00000  0.14607
       3     H     0.42696  0.42696  0.00000  0.14607

   Total alpha =  5.00000, Total beta =  5.00000, Total charge =  0.00000

  Lowdin Charges: (a.u.)
   Center  Symbol    Alpha    Beta     Spin     Total
       1     O     4.04051  4.04051  0.00000 -0.08103
       2     H     0.47974  0.47974 -0.00000  0.04051
       3     H     0.47974  0.47974  0.00000  0.04051

  Total alpha =  5.00000, Total beta =  5.00000, Total charge = -0.00000


  Mayer Bond Indices:

  Total Bond Index: 
  Irrep: 1 Size: 3 x 3

                 1                   2                   3

    1     0.00000000000000     1.02550738458813     1.02550738458814
    2     1.02550738458813     0.00000000000000     0.00867273061017
    3     1.02550738458814     0.00867273061017     0.00000000000000



  Alpha Contribution: 
  Irrep: 1 Size: 3 x 3

                 1                   2                   3

    1     0.00000000000000     0.51275369229407     0.51275369229407
    2     0.51275369229407     0.00000000000000     0.00433636530509
    3     0.51275369229407     0.00433636530509     0.00000000000000



  Beta Contribution: 
  Irrep: 1 Size: 3 x 3

                 1                   2                   3

    1     0.00000000000000     0.51275369229407     0.51275369229407
    2     0.51275369229407     0.00000000000000     0.00433636530509
    3     0.51275369229407     0.00433636530509     0.00000000000000



  Atomic Valences: 

 #  #
 Irrep: 1
      1:    2.051014769176271
      2:    1.034180115198305
      3:    1.034180115198309



  Wiberg Bond Indices using Orthogonal Lowdin Orbitals:

  Total Bond Index: 
  Irrep: 1 Size: 3 x 3

                 1                   2                   3

    1     0.00000000000000     1.19704802651450     1.19704802651449
    2     1.19704802651450     0.00000000000000     0.06997086340566
    3     1.19704802651449     0.06997086340566     0.00000000000000



  Alpha Contribution: 
  Irrep: 1 Size: 3 x 3

                 1                   2                   3

    1     0.00000000000000     0.59852401325725     0.59852401325725
    2     0.59852401325725     0.00000000000000     0.03498543170283
    3     0.59852401325725     0.03498543170283     0.00000000000000



  Beta Contribution: 
  Irrep: 1 Size: 3 x 3

                 1                   2                   3

    1     0.00000000000000     0.59852401325725     0.59852401325725
    2     0.59852401325725     0.00000000000000     0.03498543170283
    3     0.59852401325725     0.03498543170283     0.00000000000000



  Atomic Valences: 

 #  #
 Irrep: 1
      1:    2.394096053028994
      2:    1.267018889920156
      3:    1.267018889920150

  Natural Orbital Occupations:

  Alpha Occupations:
  HONO-2 :    3  A    1.000
  HONO-1 :    4  A    1.000
  HONO-0 :    5  A    1.000
  LUNO+0 :    6  A    0.000
  LUNO+1 :    7  A    0.000
  LUNO+2 :    8  A    0.000
  LUNO+3 :    9  A    0.000

  Beta Occupations:
  HONO-2 :    3  A    1.000
  HONO-1 :    4  A    1.000
  HONO-0 :    5  A    1.000
  LUNO+0 :    6  A    0.000
  LUNO+1 :    7  A    0.000
  LUNO+2 :    8  A    0.000
  LUNO+3 :    9  A    0.000

  Total Occupations:
  HONO-2 :    3  A    2.000
  HONO-1 :    4  A    2.000
  HONO-0 :    5  A    2.000
  LUNO+0 :    6  A    0.000
  LUNO+1 :    7  A    0.000
  LUNO+2 :    8  A    0.000
  LUNO+3 :    9  A    0.000



Properties will be evaluated at   0.000000,   0.000000,   0.000000 [a0]
OEProp: No title given, name of density matrix used for the following properties is 'SCF alpha density'

 Multipole Moments:

 ------------------------------------------------------------------------------------
     Multipole            Electronic (a.u.)      Nuclear  (a.u.)        Total (a.u.)
 ------------------------------------------------------------------------------------

 L = 1.  Multiply by 2.5417464519 to convert [e a0] to [Debye]
 Dipole X            :         -0.0000000           -0.0000000           -0.0000000
 Dipole Y            :         -0.0000000            0.0000000           -0.0000000
 Dipole Z            :          0.1588416           -0.9631031           -0.8042615
 Magnitude           :                                                    0.8042615

 L = 2.  Multiply by 1.3450342976 to convert [e a0^2] to [Debye ang]
 Quadrupole XX       :         -7.0823660            4.0037454           -3.0786205
 Quadrupole XY       :         -0.0000000           -0.0000000           -0.0000000
 Quadrupole XZ       :         -0.0000000            0.0000000            0.0000000
 Quadrupole YY       :         -5.2104213            0.0000000           -5.2104213
 Quadrupole YZ       :          0.0000000           -0.0000000            0.0000000
 Quadrupole ZZ       :         -6.2251030            2.0055164           -4.2195866
 Traceless XX        :         -0.9097359            2.0006582            1.0909223
 Traceless YY        :          0.9622088           -2.0030873           -1.0408785
 Traceless ZZ        :         -0.0524729            0.0024291           -0.0500438

 L = 3.  Multiply by 0.7117614979 to convert [e a0^3] to [Debye ang^2]
 Octupole XXX        :         -0.0000000           -0.0000000           -0.0000000
 Octupole XXY        :         -0.0000000            0.0000000           -0.0000000
 Octupole XXZ        :          2.4146827           -3.8876868           -1.4730041
 Octupole XYY        :         -0.0000000           -0.0000000           -0.0000000
 Octupole XYZ        :          0.0000000            0.0000000            0.0000000
 Octupole XZZ        :          0.0000000           -0.0000000           -0.0000000
 Octupole YYY        :         -0.0000000            0.0000000           -0.0000000
 Octupole YYZ        :          0.0728060           -0.0000000            0.0728060
 Octupole YZZ        :         -0.0000000            0.0000000           -0.0000000
 Octupole ZZZ        :          1.3657937           -1.8164101           -0.4506164

 L = 4.  Multiply by 0.3766479641 to convert [e a0^4] to [Debye ang^3]
 Hexadecapole XXXX   :        -22.4347781            8.0149888          -14.4197893
 Hexadecapole XXXY   :         -0.0000000           -0.0000000           -0.0000000
 Hexadecapole XXXZ   :         -0.0000000            0.0000000            0.0000000
 Hexadecapole XXYY   :         -5.2914000            0.0000000           -5.2914000
 Hexadecapole XXYZ   :          0.0000000           -0.0000000            0.0000000
 Hexadecapole XXZZ   :         -7.4832560            3.7749923           -3.7082637
 Hexadecapole XYYY   :          0.0000000           -0.0000000            0.0000000
 Hexadecapole XYYZ   :          0.0000000            0.0000000            0.0000000
 Hexadecapole XYZZ   :         -0.0000000           -0.0000000           -0.0000000
 Hexadecapole XZZZ   :         -0.0000000            0.0000000            0.0000000
 Hexadecapole YYYY   :        -12.7968989            0.0000000          -12.7968989
 Hexadecapole YYYZ   :          0.0000000           -0.0000000            0.0000000
 Hexadecapole YYZZ   :         -4.7922005            0.0000000           -4.7922005
 Hexadecapole YZZZ   :          0.0000000           -0.0000000            0.0000000
 Hexadecapole ZZZZ   :        -16.6519305            1.7797832          -14.8721473

 ------------------------------------------------------------------------------------

 Electrostatic potentials at the nuclear coordinates:
 ---------------------------------------------
   Center     Electrostatic Potential (a.u.)
 ---------------------------------------------
    1  O           -22.344971495880
    2  H            -1.004684624994
    3  H            -1.004684624994
 ---------------------------------------------

 Multipole Moments:

 ------------------------------------------------------------------------------------
     Multipole            Electronic (a.u.)      Nuclear  (a.u.)        Total (a.u.)
 ------------------------------------------------------------------------------------

 L = 1.  Multiply by 2.5417464519 to convert [e a0] to [Debye]
 Dipole X            :         -0.0000000           -0.0000000           -0.0000000
 Dipole Y            :         -0.0000000            0.0000000           -0.0000000
 Dipole Z            :          0.1588416           -0.9631031           -0.8042615
 Magnitude           :                                                    0.8042615

 L = 2.  Multiply by 1.3450342976 to convert [e a0^2] to [Debye ang]
 Quadrupole XX       :         -7.0823660            4.0037454           -3.0786205
 Quadrupole XY       :         -0.0000000           -0.0000000           -0.0000000
 Quadrupole XZ       :         -0.0000000            0.0000000            0.0000000
 Quadrupole YY       :         -5.2104213            0.0000000           -5.2104213
 Quadrupole YZ       :          0.0000000           -0.0000000            0.0000000
 Quadrupole ZZ       :         -6.2251030            2.0055164           -4.2195866
 Traceless XX        :         -0.9097359            2.0006582            1.0909223
 Traceless YY        :          0.9622088           -2.0030873           -1.0408785
 Traceless ZZ        :         -0.0524729            0.0024291           -0.0500438

 ------------------------------------------------------------------------------------
  Mulliken Charges: (a.u.)
   Center  Symbol    Alpha    Beta     Spin     Total
       1     O     4.14607  4.14607  0.00000 -0.29215
       2     H     0.42696  0.42696 -0.00000  0.14607
       3     H     0.42696  0.42696  0.00000  0.14607

   Total alpha =  5.00000, Total beta =  5.00000, Total charge =  0.00000

  Lowdin Charges: (a.u.)
   Center  Symbol    Alpha    Beta     Spin     Total
       1     O     4.04051  4.04051  0.00000 -0.08103
       2     H     0.47974  0.47974 -0.00000  0.04051
       3     H     0.47974  0.47974  0.00000  0.04051

  Total alpha =  5.00000, Total beta =  5.00000, Total charge = -0.00000


  Mayer Bond Indices:

  Total Bond Index: 
  Irrep: 1 Size: 3 x 3

                 1                   2                   3

    1     0.00000000000000     1.02550738458813     1.02550738458814
    2     1.02550738458813     0.00000000000000     0.00867273061017
    3     1.02550738458814     0.00867273061017     0.00000000000000



  Alpha Contribution: 
  Irrep: 1 Size: 3 x 3

                 1                   2                   3

    1     0.00000000000000     0.51275369229407     0.51275369229407
    2     0.51275369229407     0.00000000000000     0.00433636530509
    3     0.51275369229407     0.00433636530509     0.00000000000000



  Beta Contribution: 
  Irrep: 1 Size: 3 x 3

                 1                   2                   3

    1     0.00000000000000     0.51275369229407     0.51275369229407
    2     0.51275369229407     0.00000000000000     0.00433636530509
    3     0.51275369229407     0.00433636530509     0.00000000000000



  Atomic Valences: 

 #  #
 Irrep: 1
      1:    2.051014769176271
      2:    1.034180115198305
      3:    1.034180115198309



  Wiberg Bond Indices using Orthogonal Lowdin Orbitals:

  Total Bond Index: 
  Irrep: 1 Size: 3 x 3

                 1                   2                   3

    1     0.00000000000000     1.19704802651450     1.19704802651449
    2     1.19704802651450     0.00000000000000     0.06997086340566
    3     1.19704802651449     0.06997086340566     0.00000000000000



  Alpha Contribution: 
  Irrep: 1 Size: 3 x 3

                 1                   2                   3

    1     0.00000000000000     0.59852401325725     0.59852401325725
    2     0.59852401325725     0.00000000000000     0.03498543170283
    3     0.59852401325725     0.03498543170283     0.00000000000000



  Beta Contribution: 
  Irrep: 1 Size: 3 x 3

                 1                   2                   3

    1     0.00000000000000     0.59852401325725     0.59852401325725
    2     0.59852401325725     0.00000000000000     0.03498543170283
    3     0.59852401325725     0.03498543170283     0.00000000000000



  Atomic Valences: 

 #  #
 Irrep: 1
      1:    2.394096053028994
      2:    1.267018889920156
      3:    1.267018889920150

  Natural Orbital Occupations:

  Alpha Occupations:
  HONO-2 :    3  A    1.000
  HONO-1 :    4  A    1.000
  HONO-0 :    5  A    1.000
  LUNO+0 :    6  A    0.000
  LUNO+1 :    7  A    0.000
  LUNO+2 :    8  A    0.000
  LUNO+3 :    9  A    0.000

  Beta Occupations:
  HONO-2 :    3  A    1.000
  HONO-1 :    4  A    1.000
  HONO-0 :    5  A    1.000
  LUNO+0 :    6  A    0.000
  LUNO+1 :    7  A    0.000
  LUNO+2 :    8  A    0.000
  LUNO+3 :    9  A    0.000

  Total Occupations:
  HONO-2 :    3  A    2.000
  HONO-1 :    4  A    2.000
  HONO-0 :    5  A    2.000
  LUNO+0 :    6  A    0.000
  LUNO+1 :    7  A    0.000
  LUNO+2 :    8  A    0.000
  LUNO+3 :    9  A    0.000

