
Host: PC001.IRVING.UPEI.CA

Timers On : Tue Apr 30 12:39:21 2024
Timers Off: Tue Apr 30 12:57:42 2024

Wall Time:     1101.08 seconds

                                                       Time (seconds)
Module                                       User      System        Wall        Calls

--------------------------------------------------------------------------------------

**************************************************************************************

Host: PC001.IRVING.UPEI.CA

Timers On : Tue Apr 30 12:59:53 2024
Timers Off: Tue Apr 30 14:03:07 2024

Wall Time:     3793.79 seconds

                                                       Time (seconds)
Module                                       User      System        Wall        Calls

--------------------------------------------------------------------------------------

**************************************************************************************

Host: PC001.IRVING.UPEI.CA

Timers On : Tue Apr 30 14:21:38 2024
Timers Off: Tue Apr 30 14:21:39 2024

Wall Time:        1.07 seconds

                                                       Time (seconds)
Module                                       User      System        Wall        Calls

--------------------------------------------------------------------------------------

**************************************************************************************

Host: PC001.IRVING.UPEI.CA

Timers On : Tue Apr 30 14:22:38 2024
Timers Off: Tue Apr 30 14:22:39 2024

Wall Time:        0.84 seconds

                                                       Time (seconds)
Module                                       User      System        Wall        Calls

--------------------------------------------------------------------------------------

**************************************************************************************

Host: PC001.IRVING.UPEI.CA

Timers On : Tue Apr 30 14:03:14 2024
Timers Off: Tue Apr 30 14:26:29 2024

Wall Time:     1394.72 seconds

                                                       Time (seconds)
Module                                       User      System        Wall        Calls

--------------------------------------------------------------------------------------

**************************************************************************************

Host: PC001.IRVING.UPEI.CA

Timers On : Tue Apr 30 14:26:46 2024
Timers Off: Tue Apr 30 14:28:14 2024

Wall Time:       88.20 seconds

                                                       Time (seconds)
Module                                       User      System        Wall        Calls

--------------------------------------------------------------------------------------

**************************************************************************************

Host: PC001.IRVING.UPEI.CA

Timers On : Tue Apr 30 14:29:58 2024
Timers Off: Tue Apr 30 14:39:29 2024

Wall Time:      570.98 seconds

                                                       Time (seconds)
Module                                       User      System        Wall        Calls
DFH: sparsity prep                  :      0.117u      0.017s      0.025w      1 calls
Libint2ERI::Libint2ERI              :      0.217u      0.017s      0.040w      9 calls
DFH: initialize()                   :      0.117u      0.017s      0.031w      1 calls
DFH: AO Construction                :      0.000u      0.000s      0.003w      1 calls
DFH: AO-Met. Contraction            :      0.000u      0.000s      0.000w      1 calls
HF: Form core H                     :      0.017u      0.000s      0.005w      1 calls
HF: Form S/X                        :      0.000u      0.000s      0.000w      1 calls
HF: Guess                           :      0.267u      0.033s      0.047w      1 calls
SAD Guess                           :      0.250u      0.017s      0.046w      1 calls
HF: Form G                          :      0.417u      0.050s      0.072w     11 calls
JK: D                               :      0.000u      0.000s      0.000w     11 calls
JK: USO2AO                          :      0.000u      0.000s      0.000w     11 calls
JK: JK                              :      0.417u      0.050s      0.071w     11 calls
DFH: compute_JK()                   :      0.000u      0.000s      0.001w      8 calls
DFH: Grabbing AOs                   :      0.000u      0.000s      0.000w      8 calls
DFH: compute_J                      :      0.000u      0.000s      0.000w      8 calls
DFH: compute_K                      :      0.000u      0.000s      0.000w      8 calls
build_JK_matrices()                 :      0.067u      0.000s      0.012w      3 calls
JK: AO2USO                          :      0.000u      0.000s      0.000w     11 calls
HF: Form F                          :      0.000u      0.000s      0.000w     11 calls
HF: Form D                          :      0.000u      0.000s      0.000w     11 calls
HF: DIIS                            :      1.300u      0.150s      0.347w     10 calls
HF: Form C                          :      0.017u      0.000s      0.003w     10 calls

--------------------------------------------------------------------------------------
DFH: sparsity prep                  :      0.117u      0.017s      0.025w      1 calls
| Libint2ERI::Libint2ERI            :      0.117u      0.017s      0.022w      1 calls
DFH: initialize()                   :      0.117u      0.017s      0.031w      1 calls
| Libint2ERI::Libint2ERI            :      0.017u      0.000s      0.003w      5 calls
| DFH: AO Construction              :      0.000u      0.000s      0.003w      1 calls
| DFH: AO-Met. Contraction          :      0.000u      0.000s      0.000w      1 calls
HF: Form core H                     :      0.017u      0.000s      0.005w      1 calls
HF: Form S/X                        :      0.000u      0.000s      0.000w      1 calls
HF: Guess                           :      0.267u      0.033s      0.047w      1 calls
| SAD Guess                         :      0.250u      0.017s      0.046w      1 calls
HF: Form G                          :      0.417u      0.050s      0.072w     11 calls
| JK: D                             :      0.000u      0.000s      0.000w     11 calls
| JK: USO2AO                        :      0.000u      0.000s      0.000w     11 calls
| JK: JK                            :      0.417u      0.050s      0.071w     11 calls
| | DFH: compute_JK()               :      0.000u      0.000s      0.001w      8 calls
| | | DFH: Grabbing AOs             :      0.000u      0.000s      0.000w      8 calls
| | | DFH: compute_J                :      0.000u      0.000s      0.000w      8 calls
| | | DFH: compute_K                :      0.000u      0.000s      0.000w      8 calls
| | Libint2ERI::Libint2ERI          :      0.083u      0.000s      0.015w      3 calls
| | build_JK_matrices()             :      0.067u      0.000s      0.012w      3 calls
| JK: AO2USO                        :      0.000u      0.000s      0.000w     11 calls
HF: Form F                          :      0.000u      0.000s      0.000w     11 calls
HF: Form D                          :      0.000u      0.000s      0.000w     11 calls
HF: DIIS                            :      1.300u      0.150s      0.347w     10 calls
HF: Form C                          :      0.017u      0.000s      0.003w     10 calls

**************************************************************************************

Host: PC001.IRVING.UPEI.CA

Timers On : Tue Apr 30 14:39:34 2024
Timers Off: Tue Apr 30 14:39:58 2024

Wall Time:       24.06 seconds

                                                       Time (seconds)
Module                                       User      System        Wall        Calls

--------------------------------------------------------------------------------------

**************************************************************************************

Host: PC001.IRVING.UPEI.CA

Timers On : Tue Apr 30 14:40:04 2024
Timers Off: Tue Apr 30 16:15:55 2024

Wall Time:     5750.94 seconds

                                                       Time (seconds)
Module                                       User      System        Wall        Calls

--------------------------------------------------------------------------------------

**************************************************************************************

Host: Barrys-MacBook-Pro.local

Timers On : Wed May  1 11:40:20 2024
Timers Off: Wed May  1 11:40:35 2024

Wall Time:       14.87 seconds

                                                       Time (seconds)
Module                                       User      System        Wall        Calls

--------------------------------------------------------------------------------------

**************************************************************************************

Host: Barrys-MacBook-Pro.local

Timers On : Thu May  2 17:25:51 2024
Timers Off: Thu May  2 18:14:05 2024

Wall Time:     2894.26 seconds

                                                       Time (seconds)
Module                                       User      System        Wall        Calls
DFH: sparsity prep                  :      0.917u      0.033s      0.136w     19 calls
Libint2ERI::Libint2ERI              :     12.733u      0.833s      2.060w    351 calls
DFH: initialize()                   :      2.167u      0.283s      0.374w     19 calls
DFH: AO Construction                :      0.100u      0.000s      0.020w     19 calls
DFH: AO-Met. Contraction            :      0.033u      0.033s      0.006w     19 calls
HF: Form core H                     :      0.200u      0.033s      0.035w     19 calls
HF: Form S/X                        :      0.050u      0.000s      0.004w     19 calls
HF: Guess                           :      2.067u      0.150s      0.343w     19 calls
SAD Guess                           :      2.000u      0.133s      0.334w      7 calls
HF: Form G                          :     17.567u      1.633s      2.925w    294 calls
JK: D                               :      0.017u      0.000s      0.004w    333 calls
JK: USO2AO                          :      0.050u      0.000s      0.012w    333 calls
JK: JK                              :     23.750u      2.050s      3.922w    333 calls
DFH: compute_JK()                   :      0.067u      0.017s      0.022w    183 calls
DFH: Grabbing AOs                   :      0.000u      0.000s      0.000w    183 calls
DFH: compute_J                      :      0.033u      0.000s      0.006w    183 calls
DFH: compute_K                      :      0.000u      0.000s      0.008w    183 calls
build_JK_matrices()                 :      5.633u      0.033s      0.923w    150 calls
JK: AO2USO                          :      0.050u      0.000s      0.010w    333 calls
HF: Form F                          :      0.017u      0.000s      0.004w    294 calls
HF: Form D                          :      0.017u      0.000s      0.002w    294 calls
HF: DIIS                            :      6.083u      0.200s      0.961w    287 calls
HF: Form C                          :      0.633u      0.000s      0.099w    287 calls
Grad: V T Perturb                   :      0.233u      0.067s      0.045w     15 calls
Grad: S                             :      0.033u      0.000s      0.005w     15 calls
Grad: JK                            :      6.833u      0.750s      1.149w     15 calls
Grad: XC                            :      0.000u      0.000s      0.000w     15 calls
Hess: XC                            :      0.000u      0.000s      0.000w      3 calls
Hess: V                             :      0.033u      0.017s      0.004w      3 calls
Hess: T                             :      0.000u      0.000s      0.001w      3 calls
Hess: S                             :      0.017u      0.000s      0.001w      3 calls
Hess: JK                            :      3.083u      0.333s      0.523w      3 calls

--------------------------------------------------------------------------------------
DFH: sparsity prep                  :      0.917u      0.033s      0.136w     19 calls
| Libint2ERI::Libint2ERI            :      0.567u      0.017s      0.098w     19 calls
DFH: initialize()                   :      2.167u      0.283s      0.374w     19 calls
| Libint2ERI::Libint2ERI            :      0.500u      0.000s      0.073w     95 calls
| DFH: AO Construction              :      0.100u      0.000s      0.020w     19 calls
| DFH: AO-Met. Contraction          :      0.033u      0.033s      0.006w     19 calls
HF: Form core H                     :      0.200u      0.033s      0.035w     19 calls
HF: Form S/X                        :      0.050u      0.000s      0.004w     19 calls
HF: Guess                           :      2.067u      0.150s      0.343w     19 calls
| SAD Guess                         :      2.000u      0.133s      0.334w      7 calls
HF: Form G                          :     17.567u      1.633s      2.925w    294 calls
| JK: D                             :      0.017u      0.000s      0.003w    294 calls
| JK: USO2AO                        :      0.033u      0.000s      0.009w    294 calls
| JK: JK                            :     17.417u      1.617s      2.895w    294 calls
| | DFH: compute_JK()               :      0.067u      0.017s      0.022w    183 calls
| | | DFH: Grabbing AOs             :      0.000u      0.000s      0.000w    183 calls
| | | DFH: compute_J                :      0.033u      0.000s      0.006w    183 calls
| | | DFH: compute_K                :      0.000u      0.000s      0.008w    183 calls
| | Libint2ERI::Libint2ERI          :      3.333u      0.050s      0.512w    111 calls
| | build_JK_matrices()             :      3.367u      0.000s      0.557w    111 calls
| JK: AO2USO                        :      0.017u      0.000s      0.008w    294 calls
HF: Form F                          :      0.017u      0.000s      0.004w    294 calls
HF: Form D                          :      0.017u      0.000s      0.002w    294 calls
HF: DIIS                            :      6.083u      0.200s      0.961w    287 calls
HF: Form C                          :      0.633u      0.000s      0.099w    287 calls
Grad: V T Perturb                   :      0.233u      0.067s      0.045w     15 calls
Grad: S                             :      0.033u      0.000s      0.005w     15 calls
Grad: JK                            :      6.833u      0.750s      1.149w     15 calls
| Libint2ERI::Libint2ERI            :      4.467u      0.433s      0.739w     60 calls
Grad: XC                            :      0.000u      0.000s      0.000w     15 calls
Hess: XC                            :      0.000u      0.000s      0.000w      3 calls
Hess: V                             :      0.033u      0.017s      0.004w      3 calls
Hess: T                             :      0.000u      0.000s      0.001w      3 calls
Hess: S                             :      0.017u      0.000s      0.001w      3 calls
Hess: JK                            :      3.083u      0.333s      0.523w      3 calls
| Libint2ERI::Libint2ERI            :      1.517u      0.183s      0.263w     12 calls
Libint2ERI::Libint2ERI              :      1.267u      0.133s      0.210w     15 calls
JK: D                               :      0.000u      0.000s      0.001w     39 calls
JK: USO2AO                          :      0.017u      0.000s      0.003w     39 calls
JK: JK                              :      6.333u      0.433s      1.027w     39 calls
| Libint2ERI::Libint2ERI            :      1.083u      0.017s      0.166w     39 calls
| build_JK_matrices()               :      2.267u      0.033s      0.365w     39 calls
JK: AO2USO                          :      0.033u      0.000s      0.002w     39 calls

**************************************************************************************

Host: Barrys-MacBook-Pro.local

Timers On : Thu May  2 18:14:11 2024
Timers Off: Thu May  2 18:18:19 2024

Wall Time:      248.58 seconds

                                                       Time (seconds)
Module                                       User      System        Wall        Calls
DFH: sparsity prep                  :      0.300u      0.000s      0.046w      6 calls
Libint2ERI::Libint2ERI              :      4.117u      0.250s      0.660w    114 calls
DFH: initialize()                   :      0.683u      0.117s      0.119w      6 calls
DFH: AO Construction                :      0.033u      0.000s      0.007w      6 calls
DFH: AO-Met. Contraction            :      0.033u      0.000s      0.002w      6 calls
HF: Form core H                     :      0.083u      0.000s      0.012w      6 calls
HF: Form S/X                        :      0.000u      0.000s      0.001w      6 calls
HF: Guess                           :      0.633u      0.050s      0.104w      6 calls
SAD Guess                           :      0.617u      0.050s      0.102w      2 calls
HF: Form G                          :      5.617u      0.533s      0.921w     94 calls
JK: D                               :      0.017u      0.000s      0.001w    107 calls
JK: USO2AO                          :      0.017u      0.000s      0.004w    107 calls
JK: JK                              :      7.600u      0.667s      1.237w    107 calls
DFH: compute_JK()                   :      0.000u      0.017s      0.007w     58 calls
DFH: Grabbing AOs                   :      0.000u      0.000s      0.000w     58 calls
DFH: compute_J                      :      0.000u      0.000s      0.002w     58 calls
DFH: compute_K                      :      0.000u      0.000s      0.002w     58 calls
build_JK_matrices()                 :      1.750u      0.017s      0.288w     49 calls
JK: AO2USO                          :      0.017u      0.000s      0.003w    107 calls
HF: Form F                          :      0.000u      0.000s      0.001w     94 calls
HF: Form D                          :      0.000u      0.000s      0.001w     94 calls
HF: DIIS                            :      2.533u      0.083s      0.413w     92 calls
HF: Form C                          :      0.267u      0.000s      0.031w     92 calls
Grad: V T Perturb                   :      0.083u      0.017s      0.015w      5 calls
Grad: S                             :      0.000u      0.000s      0.002w      5 calls
Grad: JK                            :      2.250u      0.250s      0.374w      5 calls
Grad: XC                            :      0.000u      0.000s      0.000w      5 calls
Hess: XC                            :      0.000u      0.000s      0.000w      1 calls
Hess: V                             :      0.017u      0.000s      0.001w      1 calls
Hess: T                             :      0.000u      0.000s      0.000w      1 calls
Hess: S                             :      0.000u      0.000s      0.000w      1 calls
Hess: JK                            :      1.050u      0.100s      0.172w      1 calls

--------------------------------------------------------------------------------------
DFH: sparsity prep                  :      0.300u      0.000s      0.046w      6 calls
| Libint2ERI::Libint2ERI            :      0.217u      0.000s      0.034w      6 calls
DFH: initialize()                   :      0.683u      0.117s      0.119w      6 calls
| Libint2ERI::Libint2ERI            :      0.150u      0.000s      0.023w     30 calls
| DFH: AO Construction              :      0.033u      0.000s      0.007w      6 calls
| DFH: AO-Met. Contraction          :      0.033u      0.000s      0.002w      6 calls
HF: Form core H                     :      0.083u      0.000s      0.012w      6 calls
HF: Form S/X                        :      0.000u      0.000s      0.001w      6 calls
HF: Guess                           :      0.633u      0.050s      0.104w      6 calls
| SAD Guess                         :      0.617u      0.050s      0.102w      2 calls
HF: Form G                          :      5.617u      0.533s      0.921w     94 calls
| JK: D                             :      0.017u      0.000s      0.001w     94 calls
| JK: USO2AO                        :      0.017u      0.000s      0.003w     94 calls
| JK: JK                            :      5.567u      0.533s      0.912w     94 calls
| | DFH: compute_JK()               :      0.000u      0.017s      0.007w     58 calls
| | | DFH: Grabbing AOs             :      0.000u      0.000s      0.000w     58 calls
| | | DFH: compute_J                :      0.000u      0.000s      0.002w     58 calls
| | | DFH: compute_K                :      0.000u      0.000s      0.002w     58 calls
| | Libint2ERI::Libint2ERI          :      1.033u      0.000s      0.161w     36 calls
| | build_JK_matrices()             :      1.083u      0.017s      0.175w     36 calls
| JK: AO2USO                        :      0.017u      0.000s      0.002w     94 calls
HF: Form F                          :      0.000u      0.000s      0.001w     94 calls
HF: Form D                          :      0.000u      0.000s      0.001w     94 calls
HF: DIIS                            :      2.533u      0.083s      0.413w     92 calls
HF: Form C                          :      0.267u      0.000s      0.031w     92 calls
Grad: V T Perturb                   :      0.083u      0.017s      0.015w      5 calls
Grad: S                             :      0.000u      0.000s      0.002w      5 calls
Grad: JK                            :      2.250u      0.250s      0.374w      5 calls
| Libint2ERI::Libint2ERI            :      1.450u      0.150s      0.242w     20 calls
Grad: XC                            :      0.000u      0.000s      0.000w      5 calls
Hess: XC                            :      0.000u      0.000s      0.000w      1 calls
Hess: V                             :      0.017u      0.000s      0.001w      1 calls
Hess: T                             :      0.000u      0.000s      0.000w      1 calls
Hess: S                             :      0.000u      0.000s      0.000w      1 calls
Hess: JK                            :      1.050u      0.100s      0.172w      1 calls
| Libint2ERI::Libint2ERI            :      0.483u      0.050s      0.080w      4 calls
Libint2ERI::Libint2ERI              :      0.417u      0.050s      0.067w      5 calls
JK: D                               :      0.000u      0.000s      0.000w     13 calls
JK: USO2AO                          :      0.000u      0.000s      0.001w     13 calls
JK: JK                              :      2.033u      0.133s      0.324w     13 calls
| Libint2ERI::Libint2ERI            :      0.367u      0.000s      0.052w     13 calls
| build_JK_matrices()               :      0.667u      0.000s      0.113w     13 calls
JK: AO2USO                          :      0.000u      0.000s      0.001w     13 calls

**************************************************************************************

Host: Barrys-MacBook-Pro.local

Timers On : Thu May  2 18:18:24 2024
Timers Off: Thu May  2 20:43:02 2024

Wall Time:     8677.60 seconds

                                                       Time (seconds)
Module                                       User      System        Wall        Calls
DFH: sparsity prep                  :      5.700u      0.117s      0.880w    138 calls
Libint2ERI::Libint2ERI              :     95.383u      6.667s     15.436w   2622 calls
DFH: initialize()                   :     15.617u      2.000s      2.698w    138 calls
DFH: AO Construction                :      0.900u      0.033s      0.163w    138 calls
DFH: AO-Met. Contraction            :      0.333u      0.067s      0.048w    138 calls
HF: Form core H                     :      1.383u      0.317s      0.248w    138 calls
HF: Form S/X                        :      0.183u      0.033s      0.030w    138 calls
HF: Guess                           :     22.717u      1.783s      3.759w    138 calls
SAD Guess                           :     22.183u      1.750s      3.659w     78 calls
HF: Form G                          :    124.717u     11.500s     20.625w   2123 calls
JK: D                               :      0.117u      0.000s      0.030w   2513 calls
JK: USO2AO                          :      0.750u      0.017s      0.096w   2513 calls
JK: JK                              :    184.317u     15.367s     30.219w   2513 calls
DFH: compute_JK()                   :      0.217u      0.050s      0.164w   1349 calls
DFH: Grabbing AOs                   :      0.017u      0.000s      0.003w   1349 calls
DFH: compute_J                      :      0.000u      0.000s      0.045w   1349 calls
DFH: compute_K                      :      0.100u      0.000s      0.062w   1349 calls
build_JK_matrices()                 :     45.433u      0.283s      7.415w   1164 calls
JK: AO2USO                          :      0.600u      0.000s      0.073w   2513 calls
HF: Form F                          :      0.183u      0.017s      0.032w   2123 calls
HF: Form D                          :      0.217u      0.000s      0.018w   2123 calls
HF: DIIS                            :     38.283u      0.850s      5.889w   2045 calls
HF: Form C                          :      4.450u      0.067s      0.724w   2045 calls
Grad: V T Perturb                   :      1.433u      0.283s      0.272w     90 calls
Grad: S                             :      0.167u      0.000s      0.028w     90 calls
Grad: JK                            :     40.633u      4.400s      6.819w     90 calls
Grad: XC                            :      0.000u      0.000s      0.000w     90 calls
Hess: XC                            :      0.000u      0.000s      0.000w     30 calls
Hess: V                             :      0.233u      0.017s      0.039w     30 calls
Hess: T                             :      0.050u      0.000s      0.009w     30 calls
Hess: S                             :      0.067u      0.000s      0.009w     30 calls
Hess: JK                            :     29.833u      2.817s      4.916w     30 calls

--------------------------------------------------------------------------------------
DFH: sparsity prep                  :      5.700u      0.117s      0.880w    138 calls
| Libint2ERI::Libint2ERI            :      3.883u      0.100s      0.603w    138 calls
DFH: initialize()                   :     15.617u      2.000s      2.698w    138 calls
| Libint2ERI::Libint2ERI            :      3.333u      0.200s      0.543w    690 calls
| DFH: AO Construction              :      0.900u      0.033s      0.163w    138 calls
| DFH: AO-Met. Contraction          :      0.333u      0.067s      0.048w    138 calls
HF: Form core H                     :      1.383u      0.317s      0.248w    138 calls
HF: Form S/X                        :      0.183u      0.033s      0.030w    138 calls
HF: Guess                           :     22.717u      1.783s      3.759w    138 calls
| SAD Guess                         :     22.183u      1.750s      3.659w     78 calls
HF: Form G                          :    124.717u     11.500s     20.625w   2123 calls
| JK: D                             :      0.083u      0.000s      0.022w   2123 calls
| JK: USO2AO                        :      0.583u      0.017s      0.067w   2123 calls
| JK: JK                            :    123.050u     11.433s     20.401w   2123 calls
| | DFH: compute_JK()               :      0.217u      0.050s      0.164w   1349 calls
| | | DFH: Grabbing AOs             :      0.017u      0.000s      0.003w   1349 calls
| | | DFH: compute_J                :      0.000u      0.000s      0.045w   1349 calls
| | | DFH: compute_K                :      0.100u      0.000s      0.062w   1349 calls
| | Libint2ERI::Libint2ERI          :     24.517u      0.833s      3.842w    774 calls
| | build_JK_matrices()             :     23.867u      0.117s      3.910w    774 calls
| JK: AO2USO                        :      0.567u      0.000s      0.055w   2123 calls
HF: Form F                          :      0.183u      0.017s      0.032w   2123 calls
HF: Form D                          :      0.217u      0.000s      0.018w   2123 calls
HF: DIIS                            :     38.283u      0.850s      5.889w   2045 calls
HF: Form C                          :      4.450u      0.067s      0.724w   2045 calls
Grad: V T Perturb                   :      1.433u      0.283s      0.272w     90 calls
Grad: S                             :      0.167u      0.000s      0.028w     90 calls
Grad: JK                            :     40.633u      4.400s      6.819w     90 calls
| Libint2ERI::Libint2ERI            :     26.550u      2.583s      4.395w    360 calls
Grad: XC                            :      0.000u      0.000s      0.000w     90 calls
Hess: XC                            :      0.000u      0.000s      0.000w     30 calls
Hess: V                             :      0.233u      0.017s      0.039w     30 calls
Hess: T                             :      0.050u      0.000s      0.009w     30 calls
Hess: S                             :      0.067u      0.000s      0.009w     30 calls
Hess: JK                            :     29.833u      2.817s      4.916w     30 calls
| Libint2ERI::Libint2ERI            :     14.533u      1.650s      2.442w    120 calls
Libint2ERI::Libint2ERI              :     12.000u      1.200s      2.005w    150 calls
JK: D                               :      0.033u      0.000s      0.007w    390 calls
JK: USO2AO                          :      0.167u      0.000s      0.029w    390 calls
JK: JK                              :     61.267u      3.933s      9.818w    390 calls
| Libint2ERI::Libint2ERI            :     10.567u      0.100s      1.606w    390 calls
| build_JK_matrices()               :     21.567u      0.167s      3.505w    390 calls
JK: AO2USO                          :      0.033u      0.000s      0.018w    390 calls

**************************************************************************************

Host: Barrys-MacBook-Pro.local

Timers On : Wed May  1 22:02:07 2024
Timers Off: Thu May  2 20:43:02 2024

Wall Time:    65426.12 seconds

                                                       Time (seconds)
Module                                       User      System        Wall        Calls
DFH: sparsity prep                  :      0.533u      0.083s      0.098w      8 calls
Libint2ERI::Libint2ERI              :      0.800u      0.083s      0.142w     76 calls
DFH: initialize()                   :      0.967u      0.200s      0.176w      8 calls
DFH: AO Construction                :      0.017u      0.000s      0.009w      8 calls
DFH: AO-Met. Contraction            :      0.017u      0.000s      0.002w      8 calls
HF: Form core H                     :      0.100u      0.000s      0.017w      8 calls
HF: Form S/X                        :      0.017u      0.000s      0.002w      8 calls
HF: Guess                           :      1.583u      0.167s      0.266w      8 calls
SAD Guess                           :      1.550u      0.150s      0.260w      5 calls
HF: Form G                          :      0.083u      0.000s      0.015w     71 calls
JK: D                               :      0.017u      0.000s      0.001w     71 calls
JK: USO2AO                          :      0.000u      0.000s      0.001w     71 calls
JK: JK                              :      0.033u      0.000s      0.010w     71 calls
DFH: compute_JK()                   :      0.033u      0.000s      0.010w     71 calls
DFH: Grabbing AOs                   :      0.000u      0.000s      0.000w     71 calls
DFH: compute_J                      :      0.000u      0.000s      0.003w     71 calls
DFH: compute_K                      :      0.017u      0.000s      0.003w     71 calls
JK: AO2USO                          :      0.017u      0.000s      0.001w     71 calls
HF: Form F                          :      0.000u      0.000s      0.001w     71 calls
HF: Form D                          :      0.000u      0.000s      0.001w     71 calls
HF: DIIS                            :      2.667u      0.167s      0.425w     66 calls
HF: Form C                          :      0.167u      0.000s      0.026w     66 calls
Grad: V T Perturb                   :      0.067u      0.000s      0.008w      4 calls
Grad: S                             :      0.000u      0.000s      0.001w      4 calls
Grad: JK                            :      1.433u      0.167s      0.242w      4 calls
JKGrad: Amn                         :      0.617u      0.067s      0.107w      4 calls
JKGrad: Awmn                        :      0.000u      0.000s      0.000w      4 calls
JKGrad: AB                          :      0.133u      0.017s      0.023w      4 calls
JKGrad: UV                          :      0.000u      0.000s      0.001w      4 calls
JKGrad: ABx                         :      0.050u      0.000s      0.007w      4 calls
JKGrad: Amnx                        :      0.533u      0.067s      0.091w      4 calls
Grad: XC                            :      0.000u      0.000s      0.000w      4 calls

--------------------------------------------------------------------------------------
DFH: sparsity prep                  :      0.533u      0.083s      0.098w      8 calls
| Libint2ERI::Libint2ERI            :      0.433u      0.083s      0.081w      8 calls
DFH: initialize()                   :      0.967u      0.200s      0.176w      8 calls
| Libint2ERI::Libint2ERI            :      0.183u      0.000s      0.030w     40 calls
| DFH: AO Construction              :      0.017u      0.000s      0.009w      8 calls
| DFH: AO-Met. Contraction          :      0.017u      0.000s      0.002w      8 calls
HF: Form core H                     :      0.100u      0.000s      0.017w      8 calls
HF: Form S/X                        :      0.017u      0.000s      0.002w      8 calls
HF: Guess                           :      1.583u      0.167s      0.266w      8 calls
| SAD Guess                         :      1.550u      0.150s      0.260w      5 calls
HF: Form G                          :      0.083u      0.000s      0.015w     71 calls
| JK: D                             :      0.017u      0.000s      0.001w     71 calls
| JK: USO2AO                        :      0.000u      0.000s      0.001w     71 calls
| JK: JK                            :      0.033u      0.000s      0.010w     71 calls
| | DFH: compute_JK()               :      0.033u      0.000s      0.010w     71 calls
| | | DFH: Grabbing AOs             :      0.000u      0.000s      0.000w     71 calls
| | | DFH: compute_J                :      0.000u      0.000s      0.003w     71 calls
| | | DFH: compute_K                :      0.017u      0.000s      0.003w     71 calls
| JK: AO2USO                        :      0.017u      0.000s      0.001w     71 calls
HF: Form F                          :      0.000u      0.000s      0.001w     71 calls
HF: Form D                          :      0.000u      0.000s      0.001w     71 calls
HF: DIIS                            :      2.667u      0.167s      0.425w     66 calls
HF: Form C                          :      0.167u      0.000s      0.026w     66 calls
Grad: V T Perturb                   :      0.067u      0.000s      0.008w      4 calls
Grad: S                             :      0.000u      0.000s      0.001w      4 calls
Grad: JK                            :      1.433u      0.167s      0.242w      4 calls
| JKGrad: Amn                       :      0.617u      0.067s      0.107w      4 calls
| | Libint2ERI::Libint2ERI          :      0.100u      0.000s      0.018w      4 calls
| JKGrad: Awmn                      :      0.000u      0.000s      0.000w      4 calls
| JKGrad: AB                        :      0.133u      0.017s      0.023w      4 calls
| | Libint2ERI::Libint2ERI          :      0.000u      0.000s      0.001w     16 calls
| JKGrad: UV                        :      0.000u      0.000s      0.001w      4 calls
| JKGrad: ABx                       :      0.050u      0.000s      0.007w      4 calls
| | Libint2ERI::Libint2ERI          :      0.000u      0.000s      0.000w      4 calls
| JKGrad: Amnx                      :      0.533u      0.067s      0.091w      4 calls
| | Libint2ERI::Libint2ERI          :      0.083u      0.000s      0.013w      4 calls
Grad: XC                            :      0.000u      0.000s      0.000w      4 calls

**************************************************************************************

Host: Barrys-MacBook-Pro.local

Timers On : Fri May  3 19:06:30 2024
Timers Off: Fri May  3 19:16:01 2024

Wall Time:      570.88 seconds

                                                       Time (seconds)
Module                                       User      System        Wall        Calls
DFH: sparsity prep                  :      0.467u      0.050s      0.076w     11 calls
Libint2ERI::Libint2ERI              :      6.367u      0.417s      1.016w    190 calls
DFH: initialize()                   :      1.200u      0.133s      0.211w     11 calls
DFH: AO Construction                :      0.033u      0.000s      0.012w     11 calls
DFH: AO-Met. Contraction            :      0.033u      0.000s      0.004w     11 calls
HF: Form core H                     :      0.067u      0.050s      0.017w     11 calls
HF: Form S/X                        :      0.000u      0.000s      0.002w     11 calls
HF: Guess                           :      1.233u      0.083s      0.201w     11 calls
SAD Guess                           :      1.217u      0.083s      0.196w      4 calls
HF: Form G                          :      9.333u      0.917s      1.542w    155 calls
JK: D                               :      0.017u      0.000s      0.003w    181 calls
JK: USO2AO                          :      0.017u      0.000s      0.002w    181 calls
JK: JK                              :     14.100u      1.200s      2.298w    181 calls
DFH: compute_JK()                   :      0.033u      0.017s      0.017w     97 calls
DFH: Grabbing AOs                   :      0.000u      0.000s      0.000w     97 calls
DFH: compute_J                      :      0.000u      0.017s      0.005w     97 calls
DFH: compute_K                      :      0.017u      0.000s      0.008w     97 calls
build_JK_matrices()                 :      3.983u      0.017s      0.652w     84 calls
JK: AO2USO                          :      0.000u      0.000s      0.001w    181 calls
HF: Form F                          :      0.033u      0.000s      0.002w    155 calls
HF: Form D                          :      0.000u      0.000s      0.001w    155 calls
HF: DIIS                            :      4.017u      0.167s      0.643w    151 calls
HF: Form C                          :      0.450u      0.000s      0.064w    151 calls
Grad: V T Perturb                   :      0.150u      0.083s      0.024w      7 calls
Grad: S                             :      0.017u      0.000s      0.002w      7 calls
Grad: JK                            :      3.250u      0.350s      0.545w      7 calls
Grad: XC                            :      0.000u      0.000s      0.000w      7 calls
Hess: XC                            :      0.000u      0.000s      0.000w      2 calls
Hess: V                             :      0.000u      0.000s      0.003w      2 calls
Hess: T                             :      0.000u      0.000s      0.001w      2 calls
Hess: S                             :      0.017u      0.000s      0.001w      2 calls
Hess: JK                            :      1.967u      0.183s      0.323w      2 calls

--------------------------------------------------------------------------------------
DFH: sparsity prep                  :      0.467u      0.050s      0.076w     11 calls
| Libint2ERI::Libint2ERI            :      0.350u      0.033s      0.054w     11 calls
DFH: initialize()                   :      1.200u      0.133s      0.211w     11 calls
| Libint2ERI::Libint2ERI            :      0.283u      0.000s      0.042w     55 calls
| DFH: AO Construction              :      0.033u      0.000s      0.012w     11 calls
| DFH: AO-Met. Contraction          :      0.033u      0.000s      0.004w     11 calls
HF: Form core H                     :      0.067u      0.050s      0.017w     11 calls
HF: Form S/X                        :      0.000u      0.000s      0.002w     11 calls
HF: Guess                           :      1.233u      0.083s      0.201w     11 calls
| SAD Guess                         :      1.217u      0.083s      0.196w      4 calls
HF: Form G                          :      9.333u      0.917s      1.542w    155 calls
| JK: D                             :      0.017u      0.000s      0.002w    155 calls
| JK: USO2AO                        :      0.000u      0.000s      0.001w    155 calls
| JK: JK                            :      9.267u      0.917s      1.530w    155 calls
| | DFH: compute_JK()               :      0.033u      0.017s      0.017w     97 calls
| | | DFH: Grabbing AOs             :      0.000u      0.000s      0.000w     97 calls
| | | DFH: compute_J                :      0.000u      0.017s      0.005w     97 calls
| | | DFH: compute_K                :      0.017u      0.000s      0.008w     97 calls
| | Libint2ERI::Libint2ERI          :      1.700u      0.067s      0.270w     58 calls
| | build_JK_matrices()             :      1.867u      0.000s      0.310w     58 calls
| JK: AO2USO                        :      0.000u      0.000s      0.000w    155 calls
HF: Form F                          :      0.033u      0.000s      0.002w    155 calls
HF: Form D                          :      0.000u      0.000s      0.001w    155 calls
HF: DIIS                            :      4.017u      0.167s      0.643w    151 calls
HF: Form C                          :      0.450u      0.000s      0.064w    151 calls
Grad: V T Perturb                   :      0.150u      0.083s      0.024w      7 calls
Grad: S                             :      0.017u      0.000s      0.002w      7 calls
Grad: JK                            :      3.250u      0.350s      0.545w      7 calls
| Libint2ERI::Libint2ERI            :      2.200u      0.200s      0.364w     28 calls
Grad: XC                            :      0.000u      0.000s      0.000w      7 calls
Hess: XC                            :      0.000u      0.000s      0.000w      2 calls
Hess: V                             :      0.000u      0.000s      0.003w      2 calls
Hess: T                             :      0.000u      0.000s      0.001w      2 calls
Hess: S                             :      0.017u      0.000s      0.001w      2 calls
Hess: JK                            :      1.967u      0.183s      0.323w      2 calls
| Libint2ERI::Libint2ERI            :      0.950u      0.117s      0.162w      8 calls
Libint2ERI::Libint2ERI              :      0.133u      0.000s      0.019w      4 calls
JK: D                               :      0.000u      0.000s      0.001w     26 calls
JK: USO2AO                          :      0.017u      0.000s      0.001w     26 calls
JK: JK                              :      4.833u      0.283s      0.767w     26 calls
| Libint2ERI::Libint2ERI            :      0.750u      0.000s      0.105w     26 calls
| build_JK_matrices()               :      2.117u      0.017s      0.342w     26 calls
JK: AO2USO                          :      0.000u      0.000s      0.000w     26 calls

**************************************************************************************

Host: Barrys-MacBook-Pro.local

Timers On : Fri May  3 19:16:11 2024
Timers Off: Fri May  3 19:20:06 2024

Wall Time:      234.79 seconds

                                                       Time (seconds)
Module                                       User      System        Wall        Calls
DFH: sparsity prep                  :      0.500u      0.017s      0.082w     11 calls
Libint2ERI::Libint2ERI              :      6.533u      0.450s      1.052w    190 calls
DFH: initialize()                   :      1.283u      0.183s      0.212w     11 calls
DFH: AO Construction                :      0.067u      0.000s      0.013w     11 calls
DFH: AO-Met. Contraction            :      0.033u      0.017s      0.004w     11 calls
HF: Form core H                     :      0.083u      0.000s      0.021w     11 calls
HF: Form S/X                        :      0.000u      0.000s      0.003w     11 calls
HF: Guess                           :      1.250u      0.117s      0.209w     11 calls
SAD Guess                           :      1.233u      0.117s      0.204w      4 calls
HF: Form G                          :      9.700u      0.967s      1.612w    155 calls
JK: D                               :      0.050u      0.000s      0.003w    181 calls
JK: USO2AO                          :      0.000u      0.000s      0.002w    181 calls
JK: JK                              :     14.383u      1.217s      2.355w    181 calls
DFH: compute_JK()                   :      0.067u      0.000s      0.018w     97 calls
DFH: Grabbing AOs                   :      0.000u      0.000s      0.000w     97 calls
DFH: compute_J                      :      0.017u      0.000s      0.006w     97 calls
DFH: compute_K                      :      0.033u      0.000s      0.008w     97 calls
build_JK_matrices()                 :      4.017u      0.067s      0.674w     84 calls
JK: AO2USO                          :      0.000u      0.000s      0.001w    181 calls
HF: Form F                          :      0.050u      0.000s      0.003w    155 calls
HF: Form D                          :      0.017u      0.000s      0.002w    155 calls
HF: DIIS                            :      4.400u      0.233s      0.758w    151 calls
HF: Form C                          :      0.450u      0.017s      0.071w    151 calls
Grad: V T Perturb                   :      0.133u      0.017s      0.026w      7 calls
Grad: S                             :      0.017u      0.000s      0.002w      7 calls
Grad: JK                            :      3.350u      0.383s      0.563w      7 calls
Grad: XC                            :      0.000u      0.000s      0.000w      7 calls
Hess: XC                            :      0.000u      0.000s      0.000w      2 calls
Hess: V                             :      0.033u      0.000s      0.003w      2 calls
Hess: T                             :      0.000u      0.000s      0.001w      2 calls
Hess: S                             :      0.000u      0.000s      0.001w      2 calls
Hess: JK                            :      1.950u      0.200s      0.319w      2 calls

--------------------------------------------------------------------------------------
DFH: sparsity prep                  :      0.500u      0.017s      0.082w     11 calls
| Libint2ERI::Libint2ERI            :      0.383u      0.000s      0.058w     11 calls
DFH: initialize()                   :      1.283u      0.183s      0.212w     11 calls
| Libint2ERI::Libint2ERI            :      0.283u      0.000s      0.045w     55 calls
| DFH: AO Construction              :      0.067u      0.000s      0.013w     11 calls
| DFH: AO-Met. Contraction          :      0.033u      0.017s      0.004w     11 calls
HF: Form core H                     :      0.083u      0.000s      0.021w     11 calls
HF: Form S/X                        :      0.000u      0.000s      0.003w     11 calls
HF: Guess                           :      1.250u      0.117s      0.209w     11 calls
| SAD Guess                         :      1.233u      0.117s      0.204w      4 calls
HF: Form G                          :      9.700u      0.967s      1.612w    155 calls
| JK: D                             :      0.050u      0.000s      0.002w    155 calls
| JK: USO2AO                        :      0.000u      0.000s      0.001w    155 calls
| JK: JK                            :      9.600u      0.950s      1.600w    155 calls
| | DFH: compute_JK()               :      0.067u      0.000s      0.018w     97 calls
| | | DFH: Grabbing AOs             :      0.000u      0.000s      0.000w     97 calls
| | | DFH: compute_J                :      0.017u      0.000s      0.006w     97 calls
| | | DFH: compute_K                :      0.033u      0.000s      0.008w     97 calls
| | Libint2ERI::Libint2ERI          :      1.817u      0.067s      0.285w     58 calls
| | build_JK_matrices()             :      1.917u      0.033s      0.337w     58 calls
| JK: AO2USO                        :      0.000u      0.000s      0.000w    155 calls
HF: Form F                          :      0.050u      0.000s      0.003w    155 calls
HF: Form D                          :      0.017u      0.000s      0.002w    155 calls
HF: DIIS                            :      4.400u      0.233s      0.758w    151 calls
HF: Form C                          :      0.450u      0.017s      0.071w    151 calls
Grad: V T Perturb                   :      0.133u      0.017s      0.026w      7 calls
Grad: S                             :      0.017u      0.000s      0.002w      7 calls
Grad: JK                            :      3.350u      0.383s      0.563w      7 calls
| Libint2ERI::Libint2ERI            :      2.233u      0.250s      0.375w     28 calls
Grad: XC                            :      0.000u      0.000s      0.000w      7 calls
Hess: XC                            :      0.000u      0.000s      0.000w      2 calls
Hess: V                             :      0.033u      0.000s      0.003w      2 calls
Hess: T                             :      0.000u      0.000s      0.001w      2 calls
Hess: S                             :      0.000u      0.000s      0.001w      2 calls
Hess: JK                            :      1.950u      0.200s      0.319w      2 calls
| Libint2ERI::Libint2ERI            :      0.983u      0.117s      0.164w      8 calls
Libint2ERI::Libint2ERI              :      0.117u      0.000s      0.019w      4 calls
JK: D                               :      0.000u      0.000s      0.001w     26 calls
JK: USO2AO                          :      0.000u      0.000s      0.001w     26 calls
JK: JK                              :      4.783u      0.267s      0.755w     26 calls
| Libint2ERI::Libint2ERI            :      0.717u      0.017s      0.107w     26 calls
| build_JK_matrices()               :      2.100u      0.033s      0.337w     26 calls
JK: AO2USO                          :      0.000u      0.000s      0.000w     26 calls

**************************************************************************************

Host: Barrys-MacBook-Pro.local

Timers On : Fri May  3 17:43:50 2024
Timers Off: Sat May  4 21:42:51 2024

Wall Time:    78748.69 seconds

                                                       Time (seconds)
Module                                       User      System        Wall        Calls
DFH: sparsity prep                  :      3.083u      0.067s      0.497w     73 calls
Libint2ERI::Libint2ERI              :     58.417u      4.083s      9.464w   1533 calls
DFH: initialize()                   :      8.217u      1.167s      1.438w     73 calls
DFH: AO Construction                :      0.617u      0.017s      0.090w     73 calls
DFH: AO-Met. Contraction            :      0.100u      0.067s      0.025w     73 calls
HF: Form core H                     :      0.750u      0.083s      0.135w     73 calls
HF: Form S/X                        :      0.050u      0.000s      0.016w     73 calls
HF: Guess                           :     15.483u      1.333s      2.544w     73 calls
SAD Guess                           :     15.067u      1.333s      2.477w     53 calls
HF: Form G                          :     67.667u      6.117s     11.113w   1161 calls
JK: D                               :      0.050u      0.000s      0.017w   1460 calls
JK: USO2AO                          :      0.450u      0.017s      0.059w   1460 calls
JK: JK                              :    112.983u      8.833s     18.385w   1460 calls
DFH: compute_JK()                   :      0.167u      0.017s      0.091w    744 calls
DFH: Grabbing AOs                   :      0.000u      0.000s      0.002w    744 calls
DFH: compute_J                      :      0.033u      0.000s      0.025w    744 calls
DFH: compute_K                      :      0.067u      0.000s      0.034w    744 calls
build_JK_matrices()                 :     29.000u      0.133s      4.755w    716 calls
JK: AO2USO                          :      0.250u      0.000s      0.044w   1460 calls
HF: Form F                          :      0.100u      0.017s      0.018w   1161 calls
HF: Form D                          :      0.050u      0.017s      0.010w   1161 calls
HF: DIIS                            :     21.433u      0.633s      3.478w   1108 calls
HF: Form C                          :      2.617u      0.017s      0.387w   1108 calls
Grad: V T Perturb                   :      0.700u      0.250s      0.132w     43 calls
Grad: S                             :      0.117u      0.000s      0.015w     43 calls
Grad: JK                            :     19.217u      2.000s      3.211w     43 calls
Grad: XC                            :      0.000u      0.000s      0.000w     43 calls
Hess: XC                            :      0.000u      0.000s      0.000w     23 calls
Hess: V                             :      0.200u      0.017s      0.036w     23 calls
Hess: T                             :      0.067u      0.000s      0.009w     23 calls
Hess: S                             :      0.033u      0.000s      0.009w     23 calls
Hess: JK                            :     22.767u      2.100s      3.759w     23 calls

--------------------------------------------------------------------------------------
DFH: sparsity prep                  :      3.083u      0.067s      0.497w     73 calls
| Libint2ERI::Libint2ERI            :      2.150u      0.050s      0.349w     73 calls
DFH: initialize()                   :      8.217u      1.167s      1.438w     73 calls
| Libint2ERI::Libint2ERI            :      1.767u      0.033s      0.286w    365 calls
| DFH: AO Construction              :      0.617u      0.017s      0.090w     73 calls
| DFH: AO-Met. Contraction          :      0.100u      0.067s      0.025w     73 calls
HF: Form core H                     :      0.750u      0.083s      0.135w     73 calls
HF: Form S/X                        :      0.050u      0.000s      0.016w     73 calls
HF: Guess                           :     15.483u      1.333s      2.544w     73 calls
| SAD Guess                         :     15.067u      1.333s      2.477w     53 calls
HF: Form G                          :     67.667u      6.117s     11.113w   1161 calls
| JK: D                             :      0.033u      0.000s      0.012w   1161 calls
| JK: USO2AO                        :      0.383u      0.017s      0.037w   1161 calls
| JK: JK                            :     66.600u      6.083s     10.993w   1161 calls
| | DFH: compute_JK()               :      0.167u      0.017s      0.091w    744 calls
| | | DFH: Grabbing AOs             :      0.000u      0.000s      0.002w    744 calls
| | | DFH: compute_J                :      0.033u      0.000s      0.025w    744 calls
| | | DFH: compute_K                :      0.067u      0.000s      0.034w    744 calls
| | Libint2ERI::Libint2ERI          :     13.600u      0.533s      2.157w    417 calls
| | build_JK_matrices()             :     12.700u      0.083s      2.108w    417 calls
| JK: AO2USO                        :      0.233u      0.000s      0.030w   1161 calls
HF: Form F                          :      0.100u      0.017s      0.018w   1161 calls
HF: Form D                          :      0.050u      0.017s      0.010w   1161 calls
HF: DIIS                            :     21.433u      0.633s      3.478w   1108 calls
HF: Form C                          :      2.617u      0.017s      0.387w   1108 calls
Grad: V T Perturb                   :      0.700u      0.250s      0.132w     43 calls
Grad: S                             :      0.117u      0.000s      0.015w     43 calls
Grad: JK                            :     19.217u      2.000s      3.211w     43 calls
| Libint2ERI::Libint2ERI            :     12.600u      1.167s      2.088w    172 calls
Grad: XC                            :      0.000u      0.000s      0.000w     43 calls
Hess: XC                            :      0.000u      0.000s      0.000w     23 calls
Hess: V                             :      0.200u      0.017s      0.036w     23 calls
Hess: T                             :      0.067u      0.000s      0.009w     23 calls
Hess: S                             :      0.033u      0.000s      0.009w     23 calls
Hess: JK                            :     22.767u      2.100s      3.759w     23 calls
| Libint2ERI::Libint2ERI            :     11.033u      1.250s      1.844w     92 calls
Libint2ERI::Libint2ERI              :      9.150u      0.933s      1.513w    115 calls
JK: D                               :      0.017u      0.000s      0.006w    299 calls
JK: USO2AO                          :      0.067u      0.000s      0.022w    299 calls
JK: JK                              :     46.383u      2.750s      7.392w    299 calls
| Libint2ERI::Libint2ERI            :      8.117u      0.117s      1.228w    299 calls
| build_JK_matrices()               :     16.300u      0.050s      2.646w    299 calls
JK: AO2USO                          :      0.017u      0.000s      0.013w    299 calls

**************************************************************************************

Host: Barrys-MacBook-Pro.local

Timers On : Sat May  4 22:21:02 2024
Timers Off: Sat May  4 22:44:43 2024

Wall Time:     1421.07 seconds

                                                       Time (seconds)
Module                                       User      System        Wall        Calls
DFH: sparsity prep                  :      1.717u      0.167s      0.329w     21 calls
Libint2ERI::Libint2ERI              :      1.983u      0.183s      0.369w    126 calls
DFH: initialize()                   :      2.617u      0.467s      0.481w     21 calls
DFH: AO Construction                :      0.117u      0.017s      0.022w     21 calls
DFH: AO-Met. Contraction            :      0.017u      0.000s      0.004w     21 calls
HF: Form core H                     :      0.250u      0.017s      0.039w     21 calls
HF: Form S/X                        :      0.050u      0.000s      0.004w     21 calls
HF: Guess                           :      6.217u      0.550s      1.036w     21 calls
SAD Guess                           :      6.033u      0.550s      1.009w     21 calls
HF: Form G                          :      0.217u      0.017s      0.042w    189 calls
JK: D                               :      0.000u      0.000s      0.002w    189 calls
JK: USO2AO                          :      0.050u      0.000s      0.006w    189 calls
JK: JK                              :      0.067u      0.017s      0.025w    189 calls
DFH: compute_JK()                   :      0.050u      0.017s      0.023w    189 calls
DFH: Grabbing AOs                   :      0.000u      0.000s      0.000w    189 calls
DFH: compute_J                      :      0.017u      0.000s      0.007w    189 calls
DFH: compute_K                      :      0.000u      0.000s      0.009w    189 calls
JK: AO2USO                          :      0.033u      0.000s      0.003w    189 calls
HF: Form F                          :      0.000u      0.000s      0.004w    189 calls
HF: Form D                          :      0.000u      0.000s      0.002w    189 calls
HF: DIIS                            :      5.150u      0.200s      0.818w    168 calls
HF: Form C                          :      0.417u      0.000s      0.063w    168 calls

--------------------------------------------------------------------------------------
DFH: sparsity prep                  :      1.717u      0.167s      0.329w     21 calls
| Libint2ERI::Libint2ERI            :      1.433u      0.150s      0.283w     21 calls
DFH: initialize()                   :      2.617u      0.467s      0.481w     21 calls
| Libint2ERI::Libint2ERI            :      0.550u      0.033s      0.086w    105 calls
| DFH: AO Construction              :      0.117u      0.017s      0.022w     21 calls
| DFH: AO-Met. Contraction          :      0.017u      0.000s      0.004w     21 calls
HF: Form core H                     :      0.250u      0.017s      0.039w     21 calls
HF: Form S/X                        :      0.050u      0.000s      0.004w     21 calls
HF: Guess                           :      6.217u      0.550s      1.036w     21 calls
| SAD Guess                         :      6.033u      0.550s      1.009w     21 calls
HF: Form G                          :      0.217u      0.017s      0.042w    189 calls
| JK: D                             :      0.000u      0.000s      0.002w    189 calls
| JK: USO2AO                        :      0.050u      0.000s      0.006w    189 calls
| JK: JK                            :      0.067u      0.017s      0.025w    189 calls
| | DFH: compute_JK()               :      0.050u      0.017s      0.023w    189 calls
| | | DFH: Grabbing AOs             :      0.000u      0.000s      0.000w    189 calls
| | | DFH: compute_J                :      0.017u      0.000s      0.007w    189 calls
| | | DFH: compute_K                :      0.000u      0.000s      0.009w    189 calls
| JK: AO2USO                        :      0.033u      0.000s      0.003w    189 calls
HF: Form F                          :      0.000u      0.000s      0.004w    189 calls
HF: Form D                          :      0.000u      0.000s      0.002w    189 calls
HF: DIIS                            :      5.150u      0.200s      0.818w    168 calls
HF: Form C                          :      0.417u      0.000s      0.063w    168 calls

**************************************************************************************

Host: Barrys-MacBook-Pro.local

Timers On : Sat May  4 21:42:55 2024
Timers Off: Sat May  4 22:44:43 2024

Wall Time:     2902.24 seconds

                                                       Time (seconds)
Module                                       User      System        Wall        Calls
DFH: sparsity prep                  :      0.750u      0.017s      0.146w     20 calls
Libint2ERI::Libint2ERI              :     14.983u      1.033s      2.440w    396 calls
DFH: initialize()                   :      2.333u      0.300s      0.412w     20 calls
DFH: AO Construction                :      0.167u      0.000s      0.023w     20 calls
DFH: AO-Met. Contraction            :      0.067u      0.000s      0.007w     20 calls
HF: Form core H                     :      0.200u      0.017s      0.036w     20 calls
HF: Form S/X                        :      0.033u      0.000s      0.004w     20 calls
HF: Guess                           :      3.667u      0.317s      0.609w     20 calls
SAD Guess                           :      3.550u      0.317s      0.592w     12 calls
HF: Form G                          :     18.550u      1.767s      3.093w    312 calls
JK: D                               :      0.017u      0.000s      0.005w    377 calls
JK: USO2AO                          :      0.083u      0.000s      0.019w    377 calls
JK: JK                              :     28.917u      2.467s      4.759w    377 calls
DFH: compute_JK()                   :      0.083u      0.017s      0.026w    198 calls
DFH: Grabbing AOs                   :      0.017u      0.000s      0.001w    198 calls
DFH: compute_J                      :      0.000u      0.017s      0.007w    198 calls
DFH: compute_K                      :      0.017u      0.000s      0.009w    198 calls
build_JK_matrices()                 :      7.400u      0.017s      1.216w    179 calls
JK: AO2USO                          :      0.050u      0.000s      0.013w    377 calls
HF: Form F                          :      0.000u      0.000s      0.005w    312 calls
HF: Form D                          :      0.033u      0.000s      0.003w    312 calls
HF: DIIS                            :      6.450u      0.200s      1.058w    300 calls
HF: Form C                          :      0.650u      0.033s      0.113w    300 calls
Grad: V T Perturb                   :      0.217u      0.083s      0.039w     13 calls
Grad: S                             :      0.017u      0.000s      0.004w     13 calls
Grad: JK                            :      5.850u      0.583s      0.981w     13 calls
Grad: XC                            :      0.000u      0.000s      0.000w     13 calls
Hess: XC                            :      0.000u      0.000s      0.000w      5 calls
Hess: V                             :      0.083u      0.000s      0.007w      5 calls
Hess: T                             :      0.000u      0.000s      0.002w      5 calls
Hess: S                             :      0.000u      0.000s      0.002w      5 calls
Hess: JK                            :      5.117u      0.500s      0.849w      5 calls

--------------------------------------------------------------------------------------
DFH: sparsity prep                  :      0.750u      0.017s      0.146w     20 calls
| Libint2ERI::Libint2ERI            :      0.533u      0.017s      0.104w     20 calls
DFH: initialize()                   :      2.333u      0.300s      0.412w     20 calls
| Libint2ERI::Libint2ERI            :      0.567u      0.017s      0.085w    100 calls
| DFH: AO Construction              :      0.167u      0.000s      0.023w     20 calls
| DFH: AO-Met. Contraction          :      0.067u      0.000s      0.007w     20 calls
HF: Form core H                     :      0.200u      0.017s      0.036w     20 calls
HF: Form S/X                        :      0.033u      0.000s      0.004w     20 calls
HF: Guess                           :      3.667u      0.317s      0.609w     20 calls
| SAD Guess                         :      3.550u      0.317s      0.592w     12 calls
HF: Form G                          :     18.550u      1.767s      3.093w    312 calls
| JK: D                             :      0.017u      0.000s      0.003w    312 calls
| JK: USO2AO                        :      0.067u      0.000s      0.010w    312 calls
| JK: JK                            :     18.333u      1.750s      3.059w    312 calls
| | DFH: compute_JK()               :      0.083u      0.017s      0.026w    198 calls
| | | DFH: Grabbing AOs             :      0.017u      0.000s      0.001w    198 calls
| | | DFH: compute_J                :      0.000u      0.017s      0.007w    198 calls
| | | DFH: compute_K                :      0.017u      0.000s      0.009w    198 calls
| | Libint2ERI::Libint2ERI          :      3.750u      0.150s      0.585w    114 calls
| | build_JK_matrices()             :      3.533u      0.000s      0.594w    114 calls
| JK: AO2USO                        :      0.050u      0.000s      0.008w    312 calls
HF: Form F                          :      0.000u      0.000s      0.005w    312 calls
HF: Form D                          :      0.033u      0.000s      0.003w    312 calls
HF: DIIS                            :      6.450u      0.200s      1.058w    300 calls
HF: Form C                          :      0.650u      0.033s      0.113w    300 calls
Grad: V T Perturb                   :      0.217u      0.083s      0.039w     13 calls
Grad: S                             :      0.017u      0.000s      0.004w     13 calls
Grad: JK                            :      5.850u      0.583s      0.981w     13 calls
| Libint2ERI::Libint2ERI            :      3.833u      0.367s      0.637w     52 calls
Grad: XC                            :      0.000u      0.000s      0.000w     13 calls
Hess: XC                            :      0.000u      0.000s      0.000w      5 calls
Hess: V                             :      0.083u      0.000s      0.007w      5 calls
Hess: T                             :      0.000u      0.000s      0.002w      5 calls
Hess: S                             :      0.000u      0.000s      0.002w      5 calls
Hess: JK                            :      5.117u      0.500s      0.849w      5 calls
| Libint2ERI::Libint2ERI            :      2.450u      0.283s      0.411w     20 calls
Libint2ERI::Libint2ERI              :      1.967u      0.183s      0.336w     25 calls
JK: D                               :      0.000u      0.000s      0.001w     65 calls
JK: USO2AO                          :      0.017u      0.000s      0.009w     65 calls
JK: JK                              :     10.583u      0.717s      1.701w     65 calls
| Libint2ERI::Libint2ERI            :      1.883u      0.017s      0.282w     65 calls
| build_JK_matrices()               :      3.867u      0.017s      0.622w     65 calls
JK: AO2USO                          :      0.000u      0.000s      0.004w     65 calls

**************************************************************************************

Host: Barrys-MacBook-Pro.local

Timers On : Fri May  3 19:20:12 2024
Timers Off: Sat May  4 22:44:43 2024

Wall Time:    78434.73 seconds

                                                       Time (seconds)
Module                                       User      System        Wall        Calls

--------------------------------------------------------------------------------------

**************************************************************************************

Host: PC001.IRVING.UPEI.CA

Timers On : Mon May  6 09:36:00 2024
Timers Off: Mon May  6 11:15:57 2024

Wall Time:     5996.85 seconds

                                                       Time (seconds)
Module                                       User      System        Wall        Calls
DFH: sparsity prep                  :     11.467u      0.217s      1.819w    386 calls
Libint2ERI::Libint2ERI              :    184.283u     14.467s     31.118w   7454 calls
DFH: initialize()                   :     38.733u      4.067s      7.119w    386 calls
DFH: AO Construction                :      1.917u      0.100s      0.316w    386 calls
DFH: AO-Met. Contraction            :      0.483u      0.133s      0.084w    386 calls
HF: Form core H                     :      2.717u      0.400s      0.463w    386 calls
HF: Form S/X                        :      0.483u      0.000s      0.051w    386 calls
HF: Guess                           :     54.117u      4.700s      9.201w    386 calls
SAD Guess                           :     52.417u      4.667s      8.943w    258 calls
HF: Form G                          :    229.250u     21.817s     39.187w   5847 calls
JK: D                               :      0.150u      0.000s      0.053w   7121 calls
JK: USO2AO                          :      1.517u      0.033s      0.187w   7121 calls
JK: JK                              :    361.650u     30.217s     61.273w   7121 calls
DFH: compute_JK()                   :      1.000u      0.033s      0.346w   3769 calls
DFH: Grabbing AOs                   :      0.000u      0.000s      0.006w   3769 calls
DFH: compute_J                      :      0.333u      0.000s      0.103w   3769 calls
DFH: compute_K                      :      0.217u      0.000s      0.127w   3769 calls
build_JK_matrices()                 :     95.550u      0.683s     16.460w   3352 calls
JK: AO2USO                          :      1.067u      0.117s      0.174w   7121 calls
HF: Form F                          :      0.367u      0.033s      0.116w   5847 calls
HF: Form D                          :      0.200u      0.033s      0.037w   5847 calls
HF: DIIS                            :     72.433u      1.700s     11.795w   5589 calls
HF: Form C                          :      9.100u      0.117s      1.431w   5589 calls
Grad: V T Perturb                   :      1.800u      0.433s      0.381w    226 calls
Grad: S                             :      0.117u      0.000s      0.050w    226 calls
Grad: JK                            :     68.250u      7.300s     11.768w    226 calls
Grad: XC                            :      0.000u      0.000s      0.000w    226 calls
Hess: XC                            :      0.000u      0.000s      0.000w     98 calls
Hess: V                             :      0.417u      0.000s      0.086w     98 calls
Hess: T                             :      0.067u      0.000s      0.023w     98 calls
Hess: S                             :      0.167u      0.000s      0.022w     98 calls
Hess: JK                            :     62.150u      6.017s     10.678w     98 calls

--------------------------------------------------------------------------------------
DFH: sparsity prep                  :     11.467u      0.217s      1.819w    386 calls
| Libint2ERI::Libint2ERI            :      7.417u      0.133s      1.174w    386 calls
DFH: initialize()                   :     38.733u      4.067s      7.119w    386 calls
| Libint2ERI::Libint2ERI            :      6.783u      0.250s      1.091w   1930 calls
| DFH: AO Construction              :      1.917u      0.100s      0.316w    386 calls
| DFH: AO-Met. Contraction          :      0.483u      0.133s      0.084w    386 calls
HF: Form core H                     :      2.717u      0.400s      0.463w    386 calls
HF: Form S/X                        :      0.483u      0.000s      0.051w    386 calls
HF: Guess                           :     54.117u      4.700s      9.201w    386 calls
| SAD Guess                         :     52.417u      4.667s      8.943w    258 calls
HF: Form G                          :    229.250u     21.817s     39.187w   5847 calls
| JK: D                             :      0.050u      0.000s      0.037w   5847 calls
| JK: USO2AO                        :      0.983u      0.033s      0.094w   5847 calls
| JK: JK                            :    225.700u     21.633s     38.797w   5847 calls
| | DFH: compute_JK()               :      1.000u      0.033s      0.346w   3769 calls
| | | DFH: Grabbing AOs             :      0.000u      0.000s      0.006w   3769 calls
| | | DFH: compute_J                :      0.333u      0.000s      0.103w   3769 calls
| | | DFH: compute_K                :      0.217u      0.000s      0.127w   3769 calls
| | Libint2ERI::Libint2ERI          :     46.833u      2.433s      7.665w   2078 calls
| | build_JK_matrices()             :     46.167u      0.367s      8.056w   2078 calls
| JK: AO2USO                        :      0.833u      0.083s      0.099w   5847 calls
HF: Form F                          :      0.367u      0.033s      0.116w   5847 calls
HF: Form D                          :      0.200u      0.033s      0.037w   5847 calls
HF: DIIS                            :     72.433u      1.700s     11.795w   5589 calls
HF: Form C                          :      9.100u      0.117s      1.431w   5589 calls
Grad: V T Perturb                   :      1.800u      0.433s      0.381w    226 calls
Grad: S                             :      0.117u      0.000s      0.050w    226 calls
Grad: JK                            :     68.250u      7.300s     11.768w    226 calls
| Libint2ERI::Libint2ERI            :     43.233u      4.517s      7.523w    904 calls
Grad: XC                            :      0.000u      0.000s      0.000w    226 calls
Hess: XC                            :      0.000u      0.000s      0.000w     98 calls
Hess: V                             :      0.417u      0.000s      0.086w     98 calls
Hess: T                             :      0.067u      0.000s      0.023w     98 calls
Hess: S                             :      0.167u      0.000s      0.022w     98 calls
Hess: JK                            :     62.150u      6.017s     10.678w     98 calls
| Libint2ERI::Libint2ERI            :     30.100u      3.800s      5.357w    392 calls
Libint2ERI::Libint2ERI              :     25.767u      2.983s      4.461w    490 calls
JK: D                               :      0.100u      0.000s      0.016w   1274 calls
JK: USO2AO                          :      0.533u      0.000s      0.092w   1274 calls
JK: JK                              :    135.950u      8.583s     22.476w   1274 calls
| Libint2ERI::Libint2ERI            :     24.150u      0.350s      3.847w   1274 calls
| build_JK_matrices()               :     49.383u      0.317s      8.404w   1274 calls
JK: AO2USO                          :      0.233u      0.033s      0.075w   1274 calls

**************************************************************************************

Host: PC001.IRVING.UPEI.CA

Timers On : Mon May  6 11:16:01 2024
Timers Off: Mon May  6 12:13:35 2024

Wall Time:     3454.08 seconds

                                                       Time (seconds)
Module                                       User      System        Wall        Calls
DFH: sparsity prep                  :      3.033u      0.100s      0.468w     97 calls
Libint2ERI::Libint2ERI              :     44.933u      3.100s      7.368w   1812 calls
DFH: initialize()                   :     10.000u      0.883s      1.791w     97 calls
DFH: AO Construction                :      0.533u      0.017s      0.079w     97 calls
DFH: AO-Met. Contraction            :      0.100u      0.017s      0.021w     97 calls
HF: Form core H                     :      0.617u      0.100s      0.116w     97 calls
HF: Form S/X                        :      0.050u      0.017s      0.012w     97 calls
HF: Guess                           :     14.217u      1.200s      2.369w     97 calls
SAD Guess                           :     13.633u      1.183s      2.302w     68 calls
HF: Form G                          :     57.767u      5.400s      9.613w   1453 calls
JK: D                               :      0.067u      0.000s      0.012w   1752 calls
JK: USO2AO                          :      0.333u      0.000s      0.042w   1752 calls
JK: JK                              :     89.150u      7.300s     14.707w   1752 calls
DFH: compute_JK()                   :      0.217u      0.017s      0.072w    937 calls
DFH: Grabbing AOs                   :      0.000u      0.000s      0.002w    937 calls
DFH: compute_J                      :      0.067u      0.000s      0.020w    937 calls
DFH: compute_K                      :      0.017u      0.000s      0.027w    937 calls
build_JK_matrices()                 :     23.200u      0.183s      3.892w    815 calls
JK: AO2USO                          :      0.167u      0.017s      0.035w   1752 calls
HF: Form F                          :      0.000u      0.000s      0.017w   1453 calls
HF: Form D                          :      0.100u      0.000s      0.009w   1453 calls
HF: DIIS                            :     18.500u      0.383s      2.898w   1385 calls
HF: Form C                          :      2.300u      0.017s      0.345w   1385 calls
Grad: V T Perturb                   :      0.317u      0.117s      0.083w     52 calls
Grad: S                             :      0.050u      0.000s      0.010w     52 calls
Grad: JK                            :     16.100u      1.617s      2.667w     52 calls
Grad: XC                            :      0.000u      0.000s      0.000w     52 calls
Hess: XC                            :      0.000u      0.000s      0.000w     23 calls
Hess: V                             :      0.100u      0.000s      0.019w     23 calls
Hess: T                             :      0.000u      0.000s      0.005w     23 calls
Hess: S                             :      0.000u      0.000s      0.005w     23 calls
Hess: JK                            :     14.550u      1.350s      2.441w     23 calls

--------------------------------------------------------------------------------------
DFH: sparsity prep                  :      3.033u      0.100s      0.468w     97 calls
| Libint2ERI::Libint2ERI            :      1.933u      0.083s      0.307w     97 calls
DFH: initialize()                   :     10.000u      0.883s      1.791w     97 calls
| Libint2ERI::Libint2ERI            :      1.750u      0.033s      0.273w    485 calls
| DFH: AO Construction              :      0.533u      0.017s      0.079w     97 calls
| DFH: AO-Met. Contraction          :      0.100u      0.017s      0.021w     97 calls
HF: Form core H                     :      0.617u      0.100s      0.116w     97 calls
[...]
HF: Form S/X                        :      0.050u      0.000s      0.015w     52 calls
HF: Guess                           :      5.350u      0.500s      0.898w     52 calls
| SAD Guess                         :      5.167u      0.500s      0.873w     20 calls
HF: Form G                          :     77.100u      0.633s     11.793w    609 calls
| JK: D                             :      0.050u      0.000s      0.010w    609 calls
| JK: USO2AO                        :      0.000u      0.000s      0.003w    609 calls
| JK: JK                            :     76.083u      0.617s     11.749w    609 calls
| | DFH: compute_JK()               :      1.583u      0.133s      0.418w    400 calls
| | | DFH: Grabbing AOs             :      0.000u      0.000s      0.001w    400 calls
| | | DFH: compute_J                :      0.200u      0.017s      0.086w    400 calls
| | | DFH: compute_K                :      0.517u      0.000s      0.207w    400 calls
| | Libint2ERI::Libint2ERI          :      4.850u      0.100s      0.745w    209 calls
| | build_JK_matrices()             :     64.517u      0.217s     10.193w    209 calls
| JK: AO2USO                        :      0.067u      0.000s      0.002w    609 calls
HF: Form F                          :      0.033u      0.000s      0.012w    609 calls
HF: Form D                          :      0.067u      0.000s      0.008w    609 calls
HF: DIIS                            :     12.183u      0.333s      1.982w    589 calls
HF: Form C                          :      2.033u      0.050s      0.263w    589 calls
Grad: V T Perturb                   :      0.167u      0.000s      0.056w     35 calls
Grad: S                             :      0.150u      0.000s      0.013w     35 calls
Grad: JK                            :     28.567u      0.217s      4.345w     35 calls
| Libint2ERI::Libint2ERI            :      3.367u      0.083s      0.521w    140 calls
Grad: XC                            :      0.000u      0.000s      0.000w     35 calls

**************************************************************************************

Host: Barrys-MacBook-Pro.local

Timers On : Wed May  8 15:56:03 2024
Timers Off: Thu May  9 01:25:15 2024

Wall Time:    20972.64 seconds

                                                       Time (seconds)
Module                                       User      System        Wall        Calls
DFH: sparsity prep                  :      2.983u      0.100s      0.487w     73 calls
Libint2ERI::Libint2ERI              :     59.967u      4.667s      9.802w   1536 calls
DFH: initialize()                   :      8.267u      1.067s      1.436w     73 calls
DFH: AO Construction                :      0.483u      0.033s      0.085w     73 calls
DFH: AO-Met. Contraction            :      0.183u      0.017s      0.027w     73 calls
HF: Form core H                     :      0.767u      0.133s      0.135w     73 calls
HF: Form S/X                        :      0.117u      0.000s      0.015w     73 calls
HF: Guess                           :     14.350u      1.333s      2.400w     73 calls
SAD Guess                           :     14.033u      1.317s      2.337w     48 calls
HF: Form G                          :     69.600u      6.550s     11.626w   1150 calls
JK: D                               :      0.050u      0.000s      0.019w   1436 calls
JK: USO2AO                          :      0.467u      0.000s      0.066w   1436 calls
JK: JK                              :    114.717u      9.583s     18.939w   1436 calls
DFH: compute_JK()                   :      0.283u      0.033s      0.096w    724 calls
DFH: Grabbing AOs                   :      0.017u      0.000s      0.002w    724 calls
DFH: compute_J                      :      0.133u      0.017s      0.028w    724 calls
DFH: compute_K                      :      0.067u      0.017s      0.036w    724 calls
build_JK_matrices()                 :     30.900u      0.183s      5.043w    712 calls
JK: AO2USO                          :      0.433u      0.000s      0.047w   1436 calls
HF: Form F                          :      0.033u      0.017s      0.044w   1150 calls
HF: Form D                          :      0.083u      0.017s      0.011w   1150 calls
HF: DIIS                            :     22.467u      0.617s      3.496w   1102 calls
HF: Form C                          :      2.533u      0.050s      0.422w   1102 calls
Grad: V T Perturb                   :      0.750u      0.167s      0.139w     47 calls
Grad: S                             :      0.100u      0.000s      0.015w     47 calls
Grad: JK                            :     21.400u      2.417s      3.606w     47 calls
Grad: XC                            :      0.000u      0.000s      0.000w     47 calls
Hess: XC                            :      0.000u      0.000s      0.000w     22 calls
Hess: V                             :      0.133u      0.000s      0.030w     22 calls
Hess: T                             :      0.067u      0.000s      0.007w     22 calls
Hess: S                             :      0.067u      0.000s      0.007w     22 calls
Hess: JK                            :     22.667u      2.050s      3.751w     22 calls

--------------------------------------------------------------------------------------
DFH: sparsity prep                  :      2.983u      0.100s      0.487w     73 calls
| Libint2ERI::Libint2ERI            :      2.050u      0.050s      0.334w     73 calls
DFH: initialize()                   :      8.267u      1.067s      1.436w     73 calls
| Libint2ERI::Libint2ERI            :      1.850u      0.083s      0.295w    365 calls
| DFH: AO Construction              :      0.483u      0.033s      0.085w     73 calls
| DFH: AO-Met. Contraction          :      0.183u      0.017s      0.027w     73 calls
HF: Form core H                     :      0.767u      0.133s      0.135w     73 calls
HF: Form S/X                        :      0.117u      0.000s      0.015w     73 calls
HF: Guess                           :     14.350u      1.333s      2.400w     73 calls
| SAD Guess                         :     14.033u      1.317s      2.337w     48 calls
HF: Form G                          :     69.600u      6.550s     11.626w   1150 calls
| JK: D                             :      0.033u      0.000s      0.013w   1150 calls
| JK: USO2AO                        :      0.367u      0.000s      0.040w   1150 calls
| JK: JK                            :     68.550u      6.500s     11.491w   1150 calls
| | DFH: compute_JK()               :      0.283u      0.033s      0.096w    724 calls
| | | DFH: Grabbing AOs             :      0.017u      0.000s      0.002w    724 calls
| | | DFH: compute_J                :      0.133u      0.017s      0.028w    724 calls
| | | DFH: compute_K                :      0.067u      0.017s      0.036w    724 calls
| | Libint2ERI::Libint2ERI          :     14.200u      0.583s      2.257w    426 calls
| | build_JK_matrices()             :     13.717u      0.100s      2.291w    426 calls
| JK: AO2USO                        :      0.400u      0.000s      0.032w   1150 calls
HF: Form F                          :      0.033u      0.017s      0.044w   1150 calls
HF: Form D                          :      0.083u      0.017s      0.011w   1150 calls
HF: DIIS                            :     22.467u      0.617s      3.496w   1102 calls
HF: Form C                          :      2.533u      0.050s      0.422w   1102 calls
Grad: V T Perturb                   :      0.750u      0.167s      0.139w     47 calls
Grad: S                             :      0.100u      0.000s      0.015w     47 calls
Grad: JK                            :     21.400u      2.417s      3.606w     47 calls
| Libint2ERI::Libint2ERI            :     14.067u      1.533s      2.354w    188 calls
Grad: XC                            :      0.000u      0.000s      0.000w     47 calls
Hess: XC                            :      0.000u      0.000s      0.000w     22 calls
Hess: V                             :      0.133u      0.000s      0.030w     22 calls
Hess: T                             :      0.067u      0.000s      0.007w     22 calls
Hess: S                             :      0.067u      0.000s      0.007w     22 calls
Hess: JK                            :     22.667u      2.050s      3.751w     22 calls
| Libint2ERI::Libint2ERI            :     10.683u      1.167s      1.800w     88 calls
Libint2ERI::Libint2ERI              :      9.033u      1.017s      1.522w    110 calls
JK: D                               :      0.017u      0.000s      0.006w    286 calls
JK: USO2AO                          :      0.100u      0.000s      0.026w    286 calls
JK: JK                              :     46.167u      3.083s      7.447w    286 calls
| Libint2ERI::Libint2ERI            :      8.083u      0.233s      1.240w    286 calls
| build_JK_matrices()               :     17.183u      0.083s      2.752w    286 calls
JK: AO2USO                          :      0.033u      0.000s      0.015w    286 calls

**************************************************************************************

Host: Barrys-MacBook-Pro.local

Timers On : Thu May  9 08:15:42 2024
Timers Off: Thu May  9 11:50:19 2024

Wall Time:    10122.54 seconds

                                                       Time (seconds)
Module                                       User      System        Wall        Calls
DFH: sparsity prep                  :      0.150u      0.033s      0.139w     23 calls
Libint2ERI::Libint2ERI              :      5.483u      0.150s      0.973w    345 calls
DFH: initialize()                   :      9.183u      0.583s      1.595w     23 calls
DFH: AO Construction                :      2.017u      0.000s      0.313w     23 calls
DFH: AO-Met. Contraction            :      0.500u      0.100s      0.083w     23 calls
HF: Form core H                     :      0.233u      0.000s      0.044w     23 calls
HF: Form S/X                        :      0.117u      0.000s      0.006w     23 calls
HF: Guess                           :      0.283u      0.017s      0.047w     23 calls
SAD Guess                           :      0.267u      0.017s      0.045w      1 calls
HF: Form G                          :     40.600u      0.250s      6.228w    304 calls
JK: D                               :      0.017u      0.000s      0.005w    304 calls
JK: USO2AO                          :      0.050u      0.000s      0.002w    304 calls
JK: JK                              :     40.017u      0.250s      6.207w    304 calls
DFH: compute_JK()                   :      0.583u      0.033s      0.186w    189 calls
DFH: Grabbing AOs                   :      0.000u      0.000s      0.001w    189 calls
DFH: compute_J                      :      0.083u      0.000s      0.040w    189 calls
DFH: compute_K                      :      0.233u      0.000s      0.092w    189 calls
build_JK_matrices()                 :     34.000u      0.100s      5.403w    115 calls
JK: AO2USO                          :      0.017u      0.000s      0.001w    304 calls
HF: Form F                          :      0.050u      0.000s      0.007w    304 calls
HF: Form D                          :      0.000u      0.000s      0.004w    304 calls
HF: DIIS                            :      6.483u      0.283s      1.177w    303 calls
HF: Form C                          :      0.950u      0.050s      0.132w    303 calls
Grad: V T Perturb                   :      0.083u      0.000s      0.033w     23 calls
Grad: S                             :      0.183u      0.000s      0.008w     23 calls
Grad: JK                            :     18.167u      0.117s      2.780w     23 calls
Grad: XC                            :      0.000u      0.033s      0.000w     23 calls

--------------------------------------------------------------------------------------
DFH: sparsity prep                  :      0.150u      0.033s      0.139w     23 calls
| Libint2ERI::Libint2ERI            :      0.067u      0.017s      0.082w     23 calls
DFH: initialize()                   :      9.183u      0.583s      1.595w     23 calls
| Libint2ERI::Libint2ERI            :      0.600u      0.033s      0.168w    115 calls
| DFH: AO Construction              :      2.017u      0.000s      0.313w     23 calls
| DFH: AO-Met. Contraction          :      0.500u      0.100s      0.083w     23 calls
HF: Form core H                     :      0.233u      0.000s      0.044w     23 calls
HF: Form S/X                        :      0.117u      0.000s      0.006w     23 calls
HF: Guess                           :      0.283u      0.017s      0.047w     23 calls
| SAD Guess                         :      0.267u      0.017s      0.045w      1 calls
HF: Form G                          :     40.600u      0.250s      6.228w    304 calls
| JK: D                             :      0.017u      0.000s      0.005w    304 calls
| JK: USO2AO                        :      0.050u      0.000s      0.002w    304 calls
| JK: JK                            :     40.017u      0.250s      6.207w    304 calls
| | DFH: compute_JK()               :      0.583u      0.033s      0.186w    189 calls
| | | DFH: Grabbing AOs             :      0.000u      0.000s      0.001w    189 calls
| | | DFH: compute_J                :      0.083u      0.000s      0.040w    189 calls
| | | DFH: compute_K                :      0.233u      0.000s      0.092w    189 calls
| | Libint2ERI::Libint2ERI          :      2.683u      0.033s      0.404w    115 calls
| | build_JK_matrices()             :     34.000u      0.100s      5.403w    115 calls
| JK: AO2USO                        :      0.017u      0.000s      0.001w    304 calls
HF: Form F                          :      0.050u      0.000s      0.007w    304 calls
HF: Form D                          :      0.000u      0.000s      0.004w    304 calls
HF: DIIS                            :      6.483u      0.283s      1.177w    303 calls
HF: Form C                          :      0.950u      0.050s      0.132w    303 calls
Grad: V T Perturb                   :      0.083u      0.000s      0.033w     23 calls
Grad: S                             :      0.183u      0.000s      0.008w     23 calls
Grad: JK                            :     18.167u      0.117s      2.780w     23 calls
| Libint2ERI::Libint2ERI            :      2.133u      0.067s      0.319w     92 calls
Grad: XC                            :      0.000u      0.033s      0.000w     23 calls

**************************************************************************************

Host: Barrys-MacBook-Pro.local

Timers On : Thu May  9 11:50:22 2024
Timers Off: Thu May  9 13:23:40 2024

Wall Time:     3021.81 seconds

                                                       Time (seconds)
Module                                       User      System        Wall        Calls
DFH: sparsity prep                  :      0.267u      0.000s      0.167w     30 calls
Libint2ERI::Libint2ERI              :      6.850u      0.167s      1.209w    443 calls
DFH: initialize()                   :     11.700u      0.667s      2.028w     30 calls
DFH: AO Construction                :      2.517u      0.000s      0.393w     30 calls
DFH: AO-Met. Contraction            :      0.633u      0.050s      0.104w     30 calls
HF: Form core H                     :      0.250u      0.017s      0.059w     30 calls
HF: Form S/X                        :      0.100u      0.000s      0.008w     30 calls
HF: Guess                           :      0.850u      0.100s      0.148w     30 calls
SAD Guess                           :      0.833u      0.100s      0.143w      3 calls
HF: Form G                          :     50.983u      0.333s      7.725w    390 calls
JK: D                               :      0.017u      0.000s      0.005w    390 calls
JK: USO2AO                          :      0.000u      0.000s      0.002w    390 calls
JK: JK                              :     50.283u      0.317s      7.699w    390 calls
DFH: compute_JK()                   :      0.850u      0.067s      0.235w    243 calls
DFH: Grabbing AOs                   :      0.000u      0.000s      0.001w    243 calls
DFH: compute_J                      :      0.117u      0.000s      0.049w    243 calls
DFH: compute_K                      :      0.200u      0.000s      0.115w    243 calls
build_JK_matrices()                 :     42.200u      0.117s      6.719w    147 calls
JK: AO2USO                          :      0.033u      0.000s      0.001w    390 calls
HF: Form F                          :      0.017u      0.000s      0.006w    390 calls
HF: Form D                          :      0.017u      0.000s      0.005w    390 calls
HF: DIIS                            :      7.900u      0.200s      1.258w    387 calls
HF: Form C                          :      1.133u      0.017s      0.163w    387 calls
Grad: V T Perturb                   :      0.133u      0.000s      0.044w     29 calls
Grad: S                             :      0.183u      0.000s      0.010w     29 calls
Grad: JK                            :     22.283u      0.183s      3.374w     29 calls
Grad: XC                            :      0.000u      0.000s      0.000w     29 calls

--------------------------------------------------------------------------------------
DFH: sparsity prep                  :      0.267u      0.000s      0.167w     30 calls
| Libint2ERI::Libint2ERI            :      0.100u      0.000s      0.097w     30 calls
DFH: initialize()                   :     11.700u      0.667s      2.028w     30 calls
| Libint2ERI::Libint2ERI            :      0.800u      0.067s      0.209w    150 calls
| DFH: AO Construction              :      2.517u      0.000s      0.393w     30 calls
| DFH: AO-Met. Contraction          :      0.633u      0.050s      0.104w     30 calls
HF: Form core H                     :      0.250u      0.017s      0.059w     30 calls
HF: Form S/X                        :      0.100u      0.000s      0.008w     30 calls
HF: Guess                           :      0.850u      0.100s      0.148w     30 calls
| SAD Guess                         :      0.833u      0.100s      0.143w      3 calls
HF: Form G                          :     50.983u      0.333s      7.725w    390 calls
| JK: D                             :      0.017u      0.000s      0.005w    390 calls
| JK: USO2AO                        :      0.000u      0.000s      0.002w    390 calls
| JK: JK                            :     50.283u      0.317s      7.699w    390 calls
| | DFH: compute_JK()               :      0.850u      0.067s      0.235w    243 calls
| | | DFH: Grabbing AOs             :      0.000u      0.000s      0.001w    243 calls
| | | DFH: compute_J                :      0.117u      0.000s      0.049w    243 calls
| | | DFH: compute_K                :      0.200u      0.000s      0.115w    243 calls
| | Libint2ERI::Libint2ERI          :      3.300u      0.017s      0.488w    147 calls
| | build_JK_matrices()             :     42.200u      0.117s      6.719w    147 calls
| JK: AO2USO                        :      0.033u      0.000s      0.001w    390 calls
HF: Form F                          :      0.017u      0.000s      0.006w    390 calls
HF: Form D                          :      0.017u      0.000s      0.005w    390 calls
HF: DIIS                            :      7.900u      0.200s      1.258w    387 calls
HF: Form C                          :      1.133u      0.017s      0.163w    387 calls
Grad: V T Perturb                   :      0.133u      0.000s      0.044w     29 calls
Grad: S                             :      0.183u      0.000s      0.010w     29 calls
Grad: JK                            :     22.283u      0.183s      3.374w     29 calls
| Libint2ERI::Libint2ERI            :      2.650u      0.083s      0.416w    116 calls
Grad: XC                            :      0.000u      0.000s      0.000w     29 calls

**************************************************************************************
