[Molden Format]

[FREQ]
        -189.3614812944
          16.7658162481
         146.5300758524
         154.8429066027
         201.5224651776
         606.8769485506
         724.5129732401
         765.8076827475
         812.0198606146
         923.9548110167
         939.2312625626
         957.9893506647
        1054.5568514757
        1054.9585890365
        1056.7280720526
        1079.0954423863
        1128.4291372132
        1352.8716954033
        1458.9648457095
        1465.5110685196
        1694.5273594989
        3122.8003258679
        3123.2140569325
        3147.2595585709
        3177.6887245080
        3209.1520556618
        3209.7411323382

[FR-COORD]
C          1.9747628340        0.0029084853       -1.3256439951
C          1.2629706706        0.0000000000        1.4319557731
C         -1.2629706706        0.0000000000        1.4319557731
C         -1.9747628340       -0.0029084853       -1.3256439951
H          2.7370367166       -1.7243852141       -2.1548323674
H          2.7333912542        1.7340298917       -2.1498870211
H          2.5558693133       -0.0015442940        3.0388832611
H         -2.5558693133        0.0015442940        3.0388832611
H         -2.7370367166        1.7243852141       -2.1548323674
H         -2.7333912542       -1.7340298917       -2.1498870211

[FR-NORM-COORD]
vibration 1
           0.4392429382        0.0022350996        0.0533660358
          -0.0024440892        0.0016755496       -0.0691467465
           0.0041279324       -0.0014100653       -0.0682149465
          -0.4407222522       -0.0026658294        0.0549573616
           0.3688594390       -0.0255938202        0.0668146531
           0.3659817776        0.0308629866        0.0663282838
          -0.1200904940        0.0048196640        0.0364411481
           0.1225634215       -0.0023384865        0.0380319260
          -0.3707404877        0.0253501645        0.0691510017
          -0.3690089507       -0.0311329590        0.0689869989
vibration 2
           0.0006772647       -0.1761767782        0.0008350509
          -0.0009621962        0.1902577697        0.0007903072
          -0.0009644786        0.1902497200       -0.0007096208
           0.0010974143       -0.1761238897       -0.0008900514
           0.0011188677       -0.2864040669        0.2308873402
           0.0012193936       -0.2858536830       -0.2289554263
          -0.0017031480        0.4042277198        0.0015735093
          -0.0019637922        0.4041827768       -0.0016881899
           0.0016458339       -0.2863063056       -0.2309442597
           0.0014926324       -0.2857002362        0.2288211881
vibration 3
           0.1369349564        0.0004445032        0.1857098737
          -0.1472445734       -0.0020639522        0.1245222141
          -0.1471137758       -0.0004965912       -0.1250673025
           0.1347194874        0.0019752904       -0.1852281390
           0.2241497921       -0.0005024966        0.2690037464
           0.2248346933        0.0024564178        0.2719608882
          -0.3126327489       -0.0045660836        0.2579338714
          -0.3111952076       -0.0012623764       -0.2577308125
           0.2231671203        0.0012192799       -0.2690595851
           0.2220078626        0.0043311431       -0.2713537662
vibration 4
          -0.0009706174        0.0788996823        0.0002210547
          -0.0003687794        0.2260540503        0.0005679687
          -0.0003232849       -0.2260728236       -0.0000266781
           0.0016066300       -0.0788820206       -0.0006782578
          -0.1903925933       -0.0624585816        0.1265370307
           0.1899368036       -0.0618324176       -0.1260835852
          -0.0004343894        0.5750465236        0.0009896089
          -0.0010794905       -0.5750842570       -0.0002689357
           0.1914790306        0.0624747052        0.1252429356
          -0.1888419634        0.0618672621       -0.1274182683
vibration 5
          -0.0009838425        0.1689763461        0.0002228433
          -0.0001181047        0.0182481354        0.0003719499
          -0.0003410307       -0.0182089864       -0.0000962074
           0.0014036568       -0.1690138190       -0.0004287743
           0.3289463771        0.3479451225       -0.0705453260
          -0.3314503617        0.3471994801        0.0712110701
           0.0000183510       -0.0367123844        0.0004339138
          -0.0011838344        0.0367922744       -0.0006146220
          -0.3281076087       -0.3479997451       -0.0715762994
           0.3322452664       -0.3472447046        0.0702600294
vibration 6
          -0.0001282976       -0.0293194298        0.0001396256
           0.0001859757       -0.0311931053        0.0002015013
           0.0001284155       -0.0311918825       -0.0001800106
           0.0000557185       -0.0293154899       -0.0001507939
           0.3805222249        0.1794104485       -0.0761538660
          -0.3824438542        0.1784980518        0.0760923018
           0.0001830133        0.3625644565        0.0006360515
           0.0000728796        0.3625642486       -0.0004459730
           0.3808922017        0.1795205439        0.0759958508
          -0.3821056795        0.1784055564       -0.0762472714
vibration 7
           0.0001677472       -0.0927702924        0.0001347254
           0.0001258206        0.0850333841        0.0000649902
           0.0000203051       -0.0850336111       -0.0000880822
          -0.0002961783        0.0927711230        0.0000205657
           0.3825040365       -0.0704276164        0.2854175239
          -0.3830890044       -0.0704922950       -0.2859313299
           0.0000631402       -0.1340519811       -0.0000432978
          -0.0000630616        0.1340399789       -0.0003035732
          -0.3825916295        0.0704392263        0.2853038819
           0.3829658320        0.0704854999       -0.2860172771
vibration 8
          -0.1737593820        0.0000202111        0.1865384466
           0.2190056676        0.0000431980        0.2380391329
           0.2187474097        0.0001619505       -0.2378265334
          -0.1734215744       -0.0000677225       -0.1867294944
          -0.3409503761        0.0046575318        0.0316659620
          -0.3343209668       -0.0065129270        0.0337107015
           0.1359842741        0.0009573670        0.2870033683
           0.1349397653        0.0009950994       -0.2868735844
          -0.3393164804        0.0050588892       -0.0326819594
          -0.3347629420       -0.0070329190       -0.0330811008
vibration 9
           0.0000584651        0.0058413993       -0.0004193283
          -0.0000489105       -0.0440770975       -0.0000320019
          -0.0002976309       -0.0440811805        0.0004635411
          -0.0000188347        0.0058382709        0.0000643100
          -0.2857391932       -0.0188655907       -0.2122911637
           0.2873528541       -0.0185167349        0.2127970144
           0.0004608940        0.4926680931        0.0002858712
          -0.0007784845        0.4927083313       -0.0001741913
          -0.2853736083       -0.0185878153        0.2117988759
           0.2877318742       -0.0187886021       -0.2133275277
vibration 10
          -0.0942839035       -0.0001511485        0.0657092026
           0.0298815742        0.0000833041       -0.0787766143
           0.0301513326        0.0001305210        0.0780048695
          -0.0935593079       -0.0000537725       -0.0654285723
           0.2727814450        0.0230760668        0.3420705445
           0.2712354213       -0.0230082999        0.3411270474
           0.2205170390        0.0002251269       -0.2311481590
           0.2207644223       -0.0002924465        0.2299841834
           0.2689150304        0.0225057194       -0.3388364403
           0.2676020436       -0.0226121860       -0.3373495598
vibration 11
          -0.0653264169        0.0001741061        0.0069573227
          -0.0085183315        0.0001770943       -0.0495437314
           0.0083482729       -0.0002029976       -0.0503882477
           0.0660005134       -0.0002428205        0.0077006836
           0.3662896311        0.0333479210        0.3148400762
           0.3666445394       -0.0332193351        0.3142393490
           0.0745591742       -0.0010028757       -0.1230171186
          -0.0767105115        0.0018672053       -0.1254813278
          -0.3685391903       -0.0333586701        0.3183825657
          -0.3682451366        0.0334923509        0.3163790411
vibration 12
          -0.0000359456       -0.0782356165       -0.0001214102
          -0.0000255980       -0.0600053010       -0.0000750912
           0.0000015678        0.0600094569       -0.0001046407
           0.0001315005        0.0782288122       -0.0001648846
           0.1896477156        0.0702033699       -0.1370285885
          -0.1880897455        0.0695088206        0.1386844987
          -0.0001246812        0.6092454240        0.0007740177
           0.0001000524       -0.6092273983        0.0007524160
          -0.1900803653       -0.0702275445       -0.1366265862
           0.1876953916       -0.0694711379        0.1389931431
vibration 13
          -0.0020035127       -0.0951907344       -0.0049759047
           0.0008919287        0.1301628524        0.0031124083
           0.0010542380       -0.1285293761       -0.0027854941
          -0.0021782675        0.0936047495        0.0044179620
           0.0172879796        0.1276970404       -0.4435689445
           0.0043794520        0.1234012208        0.4498683094
          -0.0088755886       -0.2280648645        0.0107117281
          -0.0062961300        0.2229843720       -0.0093010987
           0.0034520785       -0.1225228593       -0.4411678088
           0.0166712755       -0.1240603800        0.4362086296
vibration 14
          -0.0015724276       -0.0850526113       -0.0028770339
           0.0004829634        0.0872768460        0.0016116490
           0.0008601388        0.0895106648       -0.0028578130
          -0.0014446685       -0.0866871004        0.0040639193
          -0.0038861224        0.1219214643       -0.4295781526
           0.0172712360        0.1188667421        0.4348463284
          -0.0065468598       -0.2710709081        0.0069417393
          -0.0039276689       -0.2749414139       -0.0066129612
          -0.0019392585        0.1242558256        0.4374402859
           0.0189606326        0.1208650104       -0.4423314197
vibration 15
           0.0722976766       -0.0060252440        0.1600195145
          -0.0338264527        0.0074231887       -0.1019835331
          -0.0337706052       -0.0019403398        0.1015196059
           0.0724002776        0.0006629155       -0.1596228931
          -0.3568856389       -0.0419043840       -0.1265133558
          -0.3552774333        0.0578352461       -0.0669118945
           0.2536330649       -0.0160734972       -0.3386484667
           0.2536070470        0.0006401984        0.3381593586
          -0.3578510329       -0.0510561734        0.0955536031
          -0.3552531695        0.0491235953        0.0991621532
vibration 16
          -0.0102622757        0.0001255669        0.2307293251
          -0.0222293536       -0.0002714008       -0.2140727800
           0.0223236859       -0.0008663993       -0.2145351588
           0.0101411628        0.0008632772        0.2313090818
          -0.3482152847       -0.0586269807        0.0763000855
          -0.3468122732        0.0571309971        0.0749649158
           0.1307810937        0.0032908716       -0.3504357017
          -0.1308549330        0.0013921036       -0.3511876823
           0.3474563470        0.0572765788        0.0726859381
           0.3479639215       -0.0586899764        0.0796215863
vibration 17
           0.0286159877       -0.0003688171       -0.0160496636
           0.0520151676        0.0003393011        0.0549384038
          -0.0519994209        0.0001499620        0.0553185276
          -0.0286312531       -0.0000179890       -0.0162670231
          -0.0005024777       -0.0007488584       -0.0462376268
          -0.0010410868        0.0016879356       -0.0433705919
           0.5907148239       -0.0008681852       -0.3736076138
          -0.5915386014       -0.0016167167       -0.3738092159
           0.0015634059        0.0013430971       -0.0454432163
           0.0007982048       -0.0010172103       -0.0455528760
vibration 18
           0.0097055825        0.0000515192       -0.0361736470
          -0.0727158123       -0.0000863812        0.1393888837
          -0.0726913789       -0.0001561403       -0.1391712071
           0.0096326394        0.0000689784        0.0362887214
           0.1031861292        0.0590211489       -0.0983199947
           0.1033043023       -0.0585932600       -0.0985405067
           0.5456036403        0.0003221698       -0.3608969635
           0.5445055963        0.0004220437        0.3597833883
           0.1021115256        0.0576623677        0.0967605067
           0.1023704252       -0.0573815527        0.0972515604
vibration 19
           0.0339780663        0.0001295892       -0.0736593813
          -0.0046246920       -0.0000074833        0.0298298401
          -0.0048998358       -0.0000147856       -0.0300282607
           0.0343870464        0.0001385757        0.0746446008
          -0.2112101314       -0.2874738046        0.3349726245
          -0.2119726431        0.2860271286        0.3354857968
           0.0758936965        0.0000235755       -0.0340878596
           0.0759397599       -0.0000072563        0.0340988315
          -0.2142611625       -0.2914407495       -0.3396863798
          -0.2149942837        0.2899432640       -0.3401512923
vibration 20
           0.0304757873        0.0000894682       -0.0732238472
          -0.0199944972        0.0000592551        0.0162873340
           0.0196455368        0.0000017641        0.0155538556
          -0.0299096089       -0.0001185737       -0.0722029963
          -0.2182047777       -0.2914184356        0.3423182083
          -0.2189928490        0.2899280617        0.3429134616
           0.0104556478       -0.0003837881       -0.0054461417
          -0.0079311786       -0.0000663457       -0.0038344990
           0.2158089650        0.2876542700        0.3379648480
           0.2162778146       -0.2860937532        0.3385290434
vibration 21
          -0.0144794125       -0.0000578015        0.0158674222
           0.4652946177        0.0001407086       -0.0779099172
          -0.4655618544       -0.0000190063       -0.0780560088
           0.0145556171        0.0000447335        0.0159703276
          -0.0373688121       -0.0696905136        0.1325912512
          -0.0366558561        0.0687511467        0.1325065917
          -0.0674222667       -0.0010441669        0.4735000104
           0.0683566535       -0.0000311525        0.4746206369
           0.0381784666        0.0697336487        0.1321201540
           0.0371864016       -0.0690124527        0.1326342847
vibration 22
          -0.0203687418        0.0000950707        0.0247027417
           0.0019637508        0.0000015696        0.0021800448
          -0.0040980327        0.0000146818        0.0038337964
           0.0336839651       -0.0001721964        0.0405496986
           0.1270097288       -0.3147237954       -0.1442143886
           0.1256480896        0.3134704842       -0.1425120710
          -0.0279723951       -0.0001236899       -0.0337397002
           0.0526352362       -0.0000448471       -0.0614608644
          -0.2064326945        0.5130452758       -0.2348040320
          -0.2040175190       -0.5108986080       -0.2318243490
vibration 23
           0.0341689079       -0.0002074073       -0.0407946049
          -0.0056500420        0.0000041472       -0.0048079173
          -0.0040219685       -0.0000051335        0.0032102230
           0.0212003918       -0.0001487493        0.0251243049
          -0.2056297082        0.5121901500        0.2339579498
          -0.2028906364       -0.5096547006        0.2308610027
           0.0673620269       -0.0000196627        0.0775786177
           0.0464416947       -0.0000426251       -0.0528514219
          -0.1256393591        0.3135533856       -0.1429860405
          -0.1237538109       -0.3117741078       -0.1409530574
vibration 24
          -0.0041874891        0.0000364766        0.0056275965
          -0.0356400608        0.0000401797       -0.0445716191
          -0.0363711860        0.0000445785        0.0452489018
          -0.0040744658        0.0000517615       -0.0054875511
           0.0199118263       -0.0556351180       -0.0264565461
           0.0195282258        0.0551660244       -0.0260283859
           0.4360684447       -0.0004658215        0.5398258381
           0.4424951741       -0.0004796457       -0.5476746016
           0.0191289351       -0.0535700902        0.0255675938
           0.0186666545        0.0529248137        0.0250343175
vibration 25
          -0.0040459283       -0.0000422479        0.0041770375
          -0.0489048323        0.0000640749       -0.0465185962
           0.0483501182       -0.0000275310       -0.0459058473
           0.0039029674        0.0000913685        0.0039839845
           0.0179830958       -0.0388457070       -0.0203800095
           0.0180557028        0.0389260817       -0.0203535389
           0.4481269790       -0.0008029135        0.5451172004
          -0.4419269687        0.0004529197        0.5377244422
          -0.0167372988        0.0362576712       -0.0193092755
          -0.0171944148       -0.0370080451       -0.0194886943
vibration 26
          -0.0000442628       -0.0691041328        0.0000451723
          -0.0000266866       -0.0001890762       -0.0000348435
           0.0000089244       -0.0001907999       -0.0000016147
          -0.0000391304       -0.0698036447       -0.0000367498
          -0.1847316313        0.4108795780        0.2004142145
           0.1852325030        0.4153443575       -0.2009148575
           0.0002999958       -0.0010836360        0.0004063485
          -0.0000320431       -0.0010939278        0.0000074903
          -0.1865221846        0.4150472615       -0.2024701744
           0.1869578013        0.4193805970        0.2028907959
vibration 27
          -0.0000067668       -0.0713606557        0.0000154125
           0.0000339707       -0.0001596220        0.0000380056
          -0.0000280531        0.0001578306        0.0000275762
           0.0000124480        0.0706740401        0.0000183019
          -0.1792999678        0.4170369935        0.2055917748
           0.1794554738        0.4206958744       -0.2057267608
          -0.0004236827       -0.0010948015       -0.0005043200
           0.0003264398        0.0010817076       -0.0003658370
           0.1774413177       -0.4128980641        0.2035764466
          -0.1776376846       -0.4166249644       -0.2037536066
