[Molden Format]

[FREQ]
        -445.2527675925
        -186.1507111816
        -153.2501730452
         -15.5225668430
         474.7354499639
         621.3949459143
         715.8586005168
         844.2330119946
         858.8560069518
         958.1369874446
         972.2307158941
         976.0894236426
        1008.9628960284
        1067.4453002674
        1107.6564143325
        1230.2013493123
        1336.9789465997
        1450.5570914422
        1509.3505120690
        1606.1858696595
        1644.3044423749
        3090.1121909593
        3091.0568336031
        3205.9378681527
        3220.7051428145
        3273.3032011010
        3273.7304033785

[FR-COORD]
C          2.0114592254        0.5607135141       -1.1519880390
C          1.3409130975        0.0000000000        1.2712302177
C         -1.3409130975       -0.0000000000        1.2712302177
C         -2.0114592254       -0.5607135141       -1.1519880390
H          3.9008467420        0.1095693251       -1.8787629376
H          1.0057585601        1.9307227670       -2.2822363630
H          2.6274648261       -0.6364459860        2.7412031073
H         -2.6274648261        0.6364459860        2.7412031073
H         -3.9008467420       -0.1095693251       -1.8787629376
H         -1.0057585601       -1.9307227670       -2.2822363630

[FR-NORM-COORD]
vibration 1
           0.2027968718        0.0464468116        0.0656743030
           0.0306572804       -0.0197800479       -0.0701615049
          -0.0306572804        0.0197800479       -0.0701615049
          -0.2027968718       -0.0464468116        0.0656743030
           0.3354982448        0.2944363446        0.2850797627
          -0.0198028305       -0.3345912588       -0.1885983266
          -0.0491409993       -0.1159558119       -0.0430530912
           0.0491409993        0.1159558119       -0.0430530912
          -0.3354982448       -0.2944363446        0.2850797627
           0.0198028305        0.3345912588       -0.1885983266
vibration 2
          -0.0712995983        0.2652508512        0.0038846070
           0.0008556235        0.1503007260       -0.0033840247
          -0.0008556235       -0.1503007260       -0.0033840247
           0.0712995983       -0.2652508512        0.0038846070
          -0.0203904154        0.4868136471       -0.0040332325
          -0.2429860879        0.1427422717        0.0099680106
           0.0754877064        0.2813616250       -0.0118951250
          -0.0754877064       -0.2813616250       -0.0118951250
           0.0203904154       -0.4868136471       -0.0040332325
           0.2429860879       -0.1427422717        0.0099680106
vibration 3
           0.1084435162        0.0530129488        0.2258962650
          -0.1192239044       -0.0579908202        0.1311430391
          -0.1192239044       -0.0579908202       -0.1311430391
           0.1084435162        0.0530129488       -0.2258962650
           0.1735824548        0.0840253668        0.3750768776
           0.2119236118        0.0991917631        0.1893682766
          -0.2571458302       -0.1239464675        0.2228301375
          -0.2571458302       -0.1239464675       -0.2228301375
           0.1735824548        0.0840253668       -0.3750768776
           0.2119236118        0.0991917631       -0.1893682766
vibration 4
           0.0446466778       -0.1581363051        0.0008181369
          -0.0492831820        0.1745520266        0.0518567844
          -0.0492831820        0.1745520266       -0.0518567844
           0.0446466778       -0.1581363051       -0.0008181369
           0.0729190771       -0.2582755502        0.1364644591
           0.0884734561       -0.3138384066       -0.2269535001
          -0.1061864731        0.3766547726        0.1891881908
          -0.1061864731        0.3766547726       -0.1891881908
           0.0729190771       -0.2582755502       -0.1364644591
           0.0884734561       -0.3138384066        0.2269535001
vibration 5
           0.0325893268       -0.0963669568       -0.0301846667
          -0.0117530501        0.1782560084        0.0305765790
           0.0117530501       -0.1782560084        0.0305765790
          -0.0325893268        0.0963669568       -0.0301846667
           0.0695626948       -0.1547501489        0.1048113026
           0.0617702616       -0.2530595909       -0.2467715360
           0.0359777010        0.5169381815        0.1372938016
          -0.0359777010       -0.5169381815        0.1372938016
          -0.0695626948        0.1547501489        0.1048113026
          -0.0617702616        0.2530595909       -0.2467715360
vibration 6
          -0.0016254008        0.0110990155       -0.0014531767
          -0.0041929312       -0.0629581840       -0.0193802084
          -0.0041929312       -0.0629581840        0.0193802084
          -0.0016254008        0.0110990155        0.0014531767
           0.1531813791        0.4138730586        0.1408475531
          -0.1825260360       -0.2115732154       -0.1048813400
           0.0986225394        0.4151783920        0.0987071331
           0.0986225394        0.4151783920       -0.0987071331
           0.1531813791        0.4138730586       -0.1408475531
          -0.1825260360       -0.2115732154        0.1048813400
vibration 7
          -0.1016737755       -0.0389934325        0.0774075784
           0.1371785760        0.0164699484        0.1633891538
           0.1371785760        0.0164699484       -0.1633891538
          -0.1016737755       -0.0389934325       -0.0774075784
          -0.2161757905        0.0596860870       -0.2806838488
          -0.2731597843        0.0407238122        0.3437917788
           0.0665859986        0.1677733669        0.2832629165
           0.0665859986        0.1677733669       -0.2832629165
          -0.2161757905        0.0596860870        0.2806838488
          -0.2731597843        0.0407238122       -0.3437917788
vibration 8
           0.0100685005       -0.0128220404       -0.0175552187
          -0.0450666249       -0.1091779246       -0.0249564138
           0.0450666249        0.1091779246       -0.0249564138
          -0.0100685005        0.0128220404       -0.0175552187
           0.1065457740        0.2208025599        0.0869298286
           0.1021231426        0.1848822971        0.1441280544
          -0.0808049684        0.5192161474        0.2751208427
           0.0808049684       -0.5192161474        0.2751208427
          -0.1065457740       -0.2208025599        0.0869298286
          -0.1021231426       -0.1848822971        0.1441280544
vibration 9
           0.0710273108        0.0379610555       -0.0142726463
          -0.0266678786        0.0666068765       -0.0055639909
           0.0266678786       -0.0666068765       -0.0055639909
          -0.0710273108       -0.0379610555       -0.0142726463
           0.0753433037       -0.1969168902        0.1253271834
           0.4401154949        0.4427979126        0.1320690818
          -0.0891247247       -0.1111990983       -0.0212048247
           0.0891247247        0.1111990983       -0.0212048247
          -0.0753433037        0.1969168902        0.1253271834
          -0.4401154949       -0.4427979126        0.1320690818
vibration 10
          -0.0167063997       -0.0699226612       -0.0588170119
          -0.0140798435       -0.0004105596       -0.0185479486
          -0.0140798435       -0.0004105596        0.0185479486
          -0.0167063997       -0.0699226612        0.0588170119
           0.1018550311        0.1705203766        0.0865840226
           0.2963264334        0.4664617865        0.3001410408
          -0.0316149419        0.2004634476        0.0849453033
          -0.0316149419        0.2004634476       -0.0849453033
           0.1018550311        0.1705203766       -0.0865840226
           0.2963264334        0.4664617865       -0.3001410408
vibration 11
          -0.0853633748       -0.0961476870       -0.0263871500
           0.0037921391        0.0382970711        0.0041892310
          -0.0037921391       -0.0382970711        0.0041892310
           0.0853633748        0.0961476870       -0.0263871500
           0.2067590835        0.4621434110        0.3691362575
           0.0958185171        0.0994666051        0.0526553224
           0.0719972308       -0.1919739139       -0.1574847616
          -0.0719972308        0.1919739139       -0.1574847616
          -0.2067590835       -0.4621434110        0.3691362575
          -0.0958185171       -0.0994666051        0.0526553224
vibration 12
           0.0423321573        0.0604561865        0.0023765196
          -0.0327184609       -0.0688651815       -0.0250527135
          -0.0327184609       -0.0688651815        0.0250527135
           0.0423321573        0.0604561865       -0.0023765196
          -0.1696382030       -0.4174213780       -0.2475274561
           0.0528344184        0.0839195445        0.0121772502
           0.0023351495        0.4336262962        0.1606231728
           0.0023351495        0.4336262962       -0.1606231728
          -0.1696382030       -0.4174213780        0.2475274561
           0.0528344184        0.0839195445       -0.0121772502
vibration 13
          -0.0748525268        0.0594097838        0.0318630463
          -0.0316928121       -0.0612043480       -0.0211700919
           0.0316928121        0.0612043480       -0.0211700919
           0.0748525268       -0.0594097838        0.0318630463
          -0.0060770728       -0.2719878690        0.3976571093
           0.1848581171       -0.0685794829       -0.3595737165
           0.2126645911        0.1084208051       -0.1654025684
          -0.2126645911       -0.1084208051       -0.1654025684
           0.0060770728        0.2719878690        0.3976571093
          -0.1848581171        0.0685794829       -0.3595737165
vibration 14
          -0.0944758743        0.0186690729        0.0475685668
           0.0457939419       -0.0162848853        0.0196365604
           0.0457939419       -0.0162848853       -0.0196365604
          -0.0944758743        0.0186690729       -0.0475685668
          -0.0086008442       -0.2312367466        0.4018589403
           0.2403552452        0.0715448218       -0.1893119793
           0.3478930284        0.1313038120       -0.1835252917
           0.3478930284        0.1313038120        0.1835252917
          -0.0086008442       -0.2312367466       -0.4018589403
           0.2403552452        0.0715448218        0.1893119793
vibration 15
           0.0508446284       -0.0103969499       -0.0108769405
           0.1072484438       -0.0216461988        0.0316062458
          -0.1072484438        0.0216461988        0.0316062458
          -0.0508446284        0.0103969499       -0.0108769405
           0.0203986074        0.0203693754       -0.1165477118
           0.0618604287        0.1187740806        0.1342088683
           0.5693877463        0.1992622370       -0.2644814442
          -0.5693877463       -0.1992622370       -0.2644814442
          -0.0203986074       -0.0203693754       -0.1165477118
          -0.0618604287       -0.1187740806        0.1342088683
vibration 16
          -0.0445246021        0.0437573895       -0.0722923373
           0.0602008668       -0.0349000168        0.0364622888
           0.0602008668       -0.0349000168       -0.0364622888
          -0.0445246021        0.0437573895        0.0722923373
           0.0287315537       -0.0140041320        0.1213771083
           0.1762824819        0.0069535408       -0.3294816243
          -0.3916686337       -0.0984126283        0.4076513514
          -0.3916686337       -0.0984126283       -0.4076513514
           0.0287315537       -0.0140041320       -0.1213771083
           0.1762824819        0.0069535408        0.3294816243
vibration 17
          -0.0110845648        0.0421118358       -0.1036388458
           0.1354296887       -0.0418315614        0.1154028289
          -0.1354296887        0.0418315614        0.1154028289
           0.0110845648       -0.0421118358       -0.1036388458
           0.0552962094        0.1276539830       -0.0565628321
           0.2759691208        0.0056730987       -0.4398118768
          -0.1375702981       -0.1260881930        0.3563029780
           0.1375702981        0.1260881930        0.3563029780
          -0.0552962094       -0.1276539830       -0.0565628321
          -0.2759691208       -0.0056730987       -0.4398118768
vibration 18
           0.0126517776       -0.0034959233       -0.0275686170
          -0.0558209015       -0.0175307934        0.1127026473
          -0.0558209015       -0.0175307934       -0.1127026473
           0.0126517776       -0.0034959233        0.0275686170
          -0.0426272460        0.2370133378       -0.3876293277
           0.3236873813        0.0267993471       -0.3149072832
           0.2329472263       -0.0134511714       -0.1248596282
           0.2329472263       -0.0134511714        0.1248596282
          -0.0426272460        0.2370133378        0.3876293277
           0.3236873813        0.0267993471        0.3149072832
vibration 19
          -0.0402172514        0.0019887421        0.0103646342
           0.1769939785        0.0181866819       -0.0866549432
          -0.1769939785       -0.0181866819       -0.0866549432
           0.0402172514       -0.0019887421        0.0103646342
           0.0178671810       -0.2932593657        0.3889393782
          -0.2331905532        0.0535887530        0.2879463892
          -0.1594885994        0.0482024025        0.2314898717
           0.1594885994       -0.0482024025        0.2314898717
          -0.0178671810        0.2932593657        0.3889393782
           0.2331905532       -0.0535887530        0.2879463892
vibration 20
          -0.0536712369       -0.0399918249        0.1587905291
           0.0765966753        0.0278347711       -0.1158468663
          -0.0765966753       -0.0278347711       -0.1158468663
           0.0536712369        0.0399918249        0.1587905291
          -0.1896325313        0.2096519187       -0.3458034941
           0.4416236480        0.0377933374       -0.1968513803
          -0.0918913255        0.0781847621        0.0313320381
           0.0918913255       -0.0781847621        0.0313320381
           0.1896325313       -0.2096519187       -0.3458034941
          -0.4416236480       -0.0377933374       -0.1968513803
vibration 21
          -0.0524011005       -0.0448782564        0.1744878794
           0.0535397967        0.0242436021       -0.1603251410
           0.0535397967        0.0242436021        0.1603251410
          -0.0524011005       -0.0448782564       -0.1744878794
          -0.1816278959        0.2471342663       -0.3182247540
           0.3832779698       -0.0443200945       -0.2018362870
          -0.2152083345        0.0428791218        0.0504697494
          -0.2152083345        0.0428791218       -0.0504697494
          -0.1816278959        0.2471342663        0.3182247540
           0.3832779698       -0.0443200945        0.2018362870
vibration 22
          -0.0464986730        0.0048394369        0.0288722853
           0.0041898511       -0.0002572903       -0.0002867047
           0.0041898511       -0.0002572903        0.0002867047
          -0.0464986730        0.0048394369       -0.0288722853
           0.6276186577       -0.1562474414       -0.2396051035
          -0.0778390605        0.0834653949       -0.0595785730
          -0.0460157031        0.0182232115       -0.0470060087
          -0.0460157031        0.0182232115        0.0470060087
           0.6276186577       -0.1562474414        0.2396051035
          -0.0778390605        0.0834653949        0.0595785730
vibration 23
          -0.0453666076        0.0038222053        0.0293552005
           0.0035544620       -0.0007388427       -0.0003364203
          -0.0035544620        0.0007388427       -0.0003364203
           0.0453666076       -0.0038222053        0.0293552005
           0.6272838085       -0.1540961295       -0.2379504462
          -0.0847918055        0.0895159485       -0.0663030689
          -0.0382911112        0.0208113482       -0.0412681297
           0.0382911112       -0.0208113482       -0.0412681297
          -0.6272838085        0.1540961295       -0.2379504462
           0.0847918055       -0.0895159485       -0.0663030689
vibration 24
          -0.0029696654       -0.0031184295        0.0082009201
          -0.0350644591        0.0190539322       -0.0455329008
          -0.0350644591        0.0190539322        0.0455329008
          -0.0029696654       -0.0031184295       -0.0082009201
           0.0485796144       -0.0132221262       -0.0205534665
          -0.0310911674        0.0395307853       -0.0304136764
           0.4353773577       -0.2160499600        0.5035928663
           0.4353773577       -0.2160499600       -0.5035928663
           0.0485796144       -0.0132221262        0.0205534665
          -0.0310911674        0.0395307853        0.0304136764
vibration 25
          -0.0055881739       -0.0003488070        0.0059470923
          -0.0411051415        0.0187693170       -0.0462873974
           0.0411051415       -0.0187693170       -0.0462873974
           0.0055881739        0.0003488070        0.0059470923
           0.0506772837       -0.0100527369       -0.0229307096
          -0.0032930685       -0.0023337742        0.0022833224
           0.4411677080       -0.2166330808        0.5009724893
          -0.4411677080        0.2166330808        0.5009724893
          -0.0506772837        0.0100527369       -0.0229307096
           0.0032930685        0.0023337742        0.0022833224
vibration 26
           0.0373651439       -0.0421227535        0.0296584891
           0.0006142484        0.0002819573       -0.0030358422
          -0.0006142484       -0.0002819573       -0.0030358422
          -0.0373651439        0.0421227535        0.0296584891
          -0.1089863712        0.0245751813        0.0503717107
          -0.3543814179        0.4632675381       -0.3750003413
           0.0058543779       -0.0002877508        0.0076373352
          -0.0058543779        0.0002877508        0.0076373352
           0.1089863712       -0.0245751813        0.0503717107
           0.3543814179       -0.4632675381       -0.3750003413
vibration 27
           0.0367828043       -0.0415744925        0.0311096125
           0.0044732864       -0.0003907710        0.0010117314
           0.0044732864       -0.0003907710       -0.0010117314
           0.0367828043       -0.0415744925       -0.0311096125
          -0.1037483316        0.0238011175        0.0469504785
          -0.3547603912        0.4607649452       -0.3764437941
          -0.0327204810        0.0151071415       -0.0350282708
          -0.0327204810        0.0151071415        0.0350282708
          -0.1037483316        0.0238011175       -0.0469504785
          -0.3547603912        0.4607649451        0.3764437941
