[Molden Format]

[FREQ]
        -731.9224834220
         472.5947686261
         649.6111974923
         706.6099864084
         732.8361605740
         886.3503702772
         902.9698238450
         930.7012251796
         962.9781810574
        1017.0618053168
        1040.4493341463
        1129.7504731801
        1179.8705184008
        1265.3385572703
        1400.5463638826
        1535.0204188354
        1543.9995055645
        1554.2186343370
        3102.5601759031
        3103.2129293581
        3175.2595417776
        3195.6829874423
        3236.2332682222
        3237.1276420881

[FR-COORD]
C          1.9657993555       -0.4819373837       -1.2239919362
C          1.3031580571        0.0000000000        1.3380755245
C         -1.3031580571       -0.0000000000        1.3380755245
C         -1.9657993555        0.4819373837       -1.2239919362
H          1.3431461242       -2.2299646943       -2.0955347626
H          3.6348428683        0.3499807620       -2.1250551918
H          2.6109909876        0.4523828107        2.8622162137
H         -2.6109909876       -0.4523828107        2.8622162137
H         -1.3431461242        2.2299646943       -2.0955347626
H         -3.6348428683       -0.3499807620       -2.1250551918

[FR-NORM-COORD]
vibration 1
           0.2001045875       -0.0392137215        0.0797049692
           0.0368939051        0.0219617847       -0.0737827575
          -0.0368939051       -0.0219617847       -0.0737827575
          -0.2001045875        0.0392137215        0.0797049692
          -0.2547880211        0.2623940982       -0.1853485410
           0.3502985857       -0.2333888323        0.1965776804
          -0.0254798108        0.2313114433       -0.0817438998
           0.0254798108       -0.2313114433       -0.0817438998
           0.2547880211       -0.2623940982       -0.1853485410
          -0.3502985857        0.2333888323        0.1965776804
vibration 2
          -0.0767529277       -0.0846980096        0.0205155477
           0.0140530776        0.1790236790       -0.0203537257
          -0.0140530776       -0.1790236790       -0.0203537257
           0.0767529277        0.0846980096        0.0205155477
          -0.1676909503       -0.1770496300        0.2721729931
          -0.0924849233       -0.2609929223       -0.1718911249
           0.0105912893        0.4511452454       -0.1022086546
          -0.0105912893       -0.4511452454       -0.1022086546
           0.1676909503        0.1770496300        0.2721729931
           0.0924849233        0.2609929223       -0.1718911249
vibration 3
           0.0229039291       -0.0142475562       -0.0163254149
          -0.0297716056       -0.0464317916       -0.0254690072
          -0.0297716056       -0.0464317916        0.0254690072
           0.0229039291       -0.0142475562        0.0163254149
           0.3086191322       -0.0923203085       -0.0650379096
          -0.1647673658        0.3657275150       -0.0114681294
          -0.0620795187        0.4490913920       -0.1440238422
          -0.0620795187        0.4490913920        0.1440238422
           0.3086191322       -0.0923203085        0.0650379096
          -0.1647673658        0.3657275150        0.0114681294
vibration 4
           0.0865834634       -0.0482858902       -0.0251942057
          -0.0281802153        0.0417702512       -0.0126809061
           0.0281802153       -0.0417702512       -0.0126809061
          -0.0865834634        0.0482858902       -0.0251942057
           0.4795864435       -0.3322780882        0.2567282112
           0.1565982849       -0.0565269724        0.0896617891
          -0.0901918254       -0.1602699914        0.1045824668
           0.0901918254        0.1602699914        0.1045824668
          -0.4795864435        0.3322780882        0.2567282112
          -0.1565982849        0.0565269724        0.0896617891
vibration 5
          -0.0948740672        0.0274195856        0.0775392010
           0.1254331880       -0.0377925385        0.1615470451
           0.1254331880       -0.0377925385       -0.1615470451
          -0.0948740672        0.0274195856       -0.0775392010
           0.0051703095       -0.1195502551        0.3065922496
          -0.3888502817        0.2155118120       -0.2911822850
           0.0198177558        0.0275474161        0.2215155279
           0.0198177558        0.0275474161       -0.2215155279
           0.0051703095       -0.1195502551       -0.3065922496
          -0.3888502817        0.2155118120        0.2911822850
vibration 6
           0.0070241861       -0.0450074514        0.0060778378
           0.0206274480       -0.1032535194        0.0083228337
          -0.0206274480        0.1032535194        0.0083228337
          -0.0070241861        0.0450074514        0.0060778378
           0.2646469105       -0.1261970017       -0.0295081285
          -0.0821503651        0.2118443562        0.0680315233
           0.0564448370        0.5443903876       -0.2099897231
          -0.0564448370       -0.5443903876       -0.2099897231
          -0.2646469105        0.1261970017       -0.0295081285
           0.0821503651       -0.2118443562        0.0680315233
vibration 7
          -0.0425257582        0.0287861843        0.0441137279
           0.0467605829       -0.0642151868        0.0278550932
           0.0467605829       -0.0642151868       -0.0278550932
          -0.0425257582        0.0287861843       -0.0441137279
          -0.2682595132        0.1935982499       -0.1122645494
           0.1720131316       -0.2411027981        0.1978677689
           0.0458230498        0.4693516106       -0.1304708826
           0.0458230498        0.4693516106        0.1304708826
          -0.2682595132        0.1935982499        0.1122645494
           0.1720131316       -0.2411027981       -0.1978677689
vibration 8
           0.0923444034       -0.0965078229        0.0142691280
          -0.0033345266        0.0354467902        0.0177521455
           0.0033345266       -0.0354467902        0.0177521455
          -0.0923444034        0.0965078229        0.0142691280
          -0.0824840360        0.0347069922       -0.1267525459
          -0.3695002798        0.3886257552       -0.3740964067
          -0.0693201794       -0.0984148200        0.1195771352
           0.0693201794        0.0984148200        0.1195771352
           0.0824840360       -0.0347069922       -0.1267525459
           0.3695002798       -0.3886257552       -0.3740964067
vibration 9
          -0.0624606871        0.0727779565       -0.0448388305
           0.0100664297       -0.0304179424       -0.0130545594
           0.0100664297       -0.0304179424        0.0130545594
          -0.0624606871        0.0727779565        0.0448388305
           0.3759820581       -0.2857841719        0.3508620310
           0.2261508107       -0.2211234862        0.1999102328
           0.0217165780        0.0025342275       -0.0311980897
           0.0217165780        0.0025342275        0.0311980897
           0.3759820581       -0.2857841719       -0.3508620310
           0.2261508107       -0.2211234862       -0.1999102328
vibration 10
          -0.0626607053       -0.0704676643        0.0420690808
          -0.0158465832        0.0833000723       -0.0356292944
           0.0158465832       -0.0833000723       -0.0356292944
           0.0626607053        0.0704676643        0.0420690808
           0.1499885766        0.0455104340       -0.3438523311
          -0.0051736487        0.2394927120        0.4246525830
           0.2124805434       -0.1744016370       -0.1574776850
          -0.2124805434        0.1744016370       -0.1574776850
          -0.1499885766       -0.0455104340       -0.3438523311
           0.0051736487       -0.2394927120        0.4246525830
vibration 11
          -0.0785479734       -0.0407768182        0.0781896605
           0.0394395396        0.0376623735       -0.0121539307
           0.0394395396        0.0376623735        0.0121539307
          -0.0785479734       -0.0407768182       -0.0781896605
           0.1675114528        0.0139224983       -0.2055205982
          -0.0251885386        0.2324753933        0.4182534022
           0.3233345073       -0.2093147320       -0.1856515960
           0.3233345073       -0.2093147320        0.1856515960
           0.1675114528        0.0139224983        0.2055205982
          -0.0251885386        0.2324753933       -0.4182534022
vibration 12
           0.0454500109        0.0193790113       -0.0092937091
           0.0735953153        0.0083463322        0.0378919759
          -0.0735953153       -0.0083463322        0.0378919759
          -0.0454500109       -0.0193790113       -0.0092937091
           0.0175350421       -0.0435517839        0.1356506507
          -0.0049229287       -0.0378428868       -0.1574102488
           0.5606632513       -0.1666221179       -0.3187550658
          -0.5606632513        0.1666221179       -0.3187550658
          -0.0175350421        0.0435517839        0.1356506507
           0.0049229287        0.0378428868       -0.1574102488
vibration 13
           0.0467562567        0.0487839660        0.0972083417
          -0.0497922108       -0.0440315390       -0.0704756265
          -0.0497922108       -0.0440315390        0.0704756265
           0.0467562567        0.0487839660       -0.0972083417
          -0.1743557915       -0.0035502260        0.3848992584
          -0.1071215865        0.0194241070       -0.1857746764
           0.3176259634       -0.0724602146       -0.3814949273
           0.3176259634       -0.0724602146        0.3814949273
          -0.1743557915       -0.0035502260       -0.3848992584
          -0.1071215865        0.0194241070        0.1857746764
vibration 14
           0.0077166159       -0.0394623358       -0.1530122827
           0.0710521166        0.0561057771        0.1760805510
          -0.0710521166       -0.0561057771        0.1760805510
          -0.0077166159        0.0394623358       -0.1530122827
           0.1263998244        0.0736164676       -0.5030685359
           0.1989982769       -0.2027674190       -0.0004666876
           0.0072911359        0.1677733553        0.2288653054
          -0.0072911359       -0.1677733553        0.2288653054
          -0.1263998244       -0.0736164676       -0.5030685359
          -0.1989982769        0.2027674190       -0.0004666876
vibration 15
           0.0157803660        0.0036424111       -0.0498106214
          -0.0734001297        0.0136778056        0.1516295325
          -0.0734001297        0.0136778056       -0.1516295325
           0.0157803660        0.0036424111        0.0498106214
           0.2216482921        0.0051714522       -0.2464073790
           0.0431192692       -0.2164632427       -0.2550279811
           0.4213010943        0.0050629375       -0.2598923031
           0.4213010943        0.0050629375        0.2598923031
           0.2216482921        0.0051714522        0.2464073790
           0.0431192692       -0.2164632427        0.2550279811
vibration 16
          -0.0273926707        0.0221981296        0.0952015177
           0.0248197490       -0.0058543998       -0.0405014161
          -0.0248197490        0.0058543998       -0.0405014161
           0.0273926707       -0.0221981296        0.0952015177
           0.3937492833        0.0534767191       -0.3112252285
          -0.0822377032       -0.3203295587       -0.3477742221
          -0.0287924635       -0.0378722394        0.0076947114
           0.0287924635        0.0378722394        0.0076947114
          -0.3937492833       -0.0534767191       -0.3112252285
           0.0822377032        0.3203295587       -0.3477742221
vibration 17
          -0.0339865664        0.0286499888        0.1093455050
           0.0222349474       -0.0059503737       -0.0794289161
           0.0222349474       -0.0059503737        0.0794289161
          -0.0339865664        0.0286499888       -0.1093455050
           0.3667940549        0.0766952265       -0.3032420100
          -0.0853973534       -0.3255751526       -0.3317514719
          -0.1414721880       -0.0214005019        0.0550441439
          -0.1414721880       -0.0214005019       -0.0550441439
           0.3667940549        0.0766952265        0.3032420100
          -0.0853973534       -0.3255751526        0.3317514719
vibration 18
          -0.0449576801       -0.0058331626        0.0192553721
           0.3470289616       -0.0070590253       -0.0887842163
          -0.3470289616        0.0070590253       -0.0887842163
           0.0449576801        0.0058331626        0.0192553721
           0.0073046544       -0.0912443909        0.1765320282
          -0.0569298663        0.2134145323        0.2084884411
          -0.1760722079       -0.1014908793        0.4428475671
           0.1760722079        0.1014908793        0.4428475671
          -0.0073046544        0.0912443909        0.1765320282
           0.0569298663       -0.2134145323        0.2084884411
vibration 19
          -0.0389225764       -0.0084389593        0.0331859028
           0.0044049423        0.0002484718        0.0013220626
           0.0044049423        0.0002484718       -0.0013220626
          -0.0389225764       -0.0084389593       -0.0331859028
          -0.0781070409       -0.1689672623       -0.0738337005
           0.5388619535        0.2795129050       -0.2887388865
          -0.0497593575       -0.0130229114       -0.0517091420
          -0.0497593575       -0.0130229114        0.0517091420
          -0.0781070409       -0.1689672623        0.0738337005
           0.5388619535        0.2795129050        0.2887388865
vibration 20
          -0.0380170753       -0.0076617528        0.0329850852
           0.0029445036        0.0007776705        0.0011765054
          -0.0029445036       -0.0007776705        0.0011765054
           0.0380170753        0.0076617528        0.0329850852
          -0.0789058631       -0.1773602790       -0.0773118973
           0.5380177016        0.2783191442       -0.2890694944
          -0.0371514135       -0.0155329399       -0.0403748154
           0.0371514135        0.0155329399       -0.0403748154
           0.0789058631        0.1773602790       -0.0773118973
          -0.5380177016       -0.2783191442       -0.2890694944
vibration 21
          -0.0027069302        0.0033773352        0.0068332603
          -0.0359235577       -0.0133887540       -0.0448145874
          -0.0359235577       -0.0133887540        0.0448145874
          -0.0027069302        0.0033773352       -0.0068332603
          -0.0230859196       -0.0582593029       -0.0268092402
           0.0410976069        0.0242038729       -0.0254078206
           0.4419549140        0.1532596789        0.5196898595
           0.4419549140        0.1532596789       -0.5196898595
          -0.0230859196       -0.0582593029        0.0268092402
           0.0410976069        0.0242038729        0.0254078206
vibration 22
          -0.0035627090        0.0013338053        0.0055034900
          -0.0444138470       -0.0132250916       -0.0460411435
           0.0444138470        0.0132250916       -0.0460411435
           0.0035627090       -0.0013338053        0.0055034900
          -0.0118438306       -0.0217965369       -0.0098500237
           0.0395232339        0.0169624720       -0.0244640589
           0.4485155528        0.1551884822        0.5169889784
          -0.4485155528       -0.1551884822        0.5169889784
           0.0118438306        0.0217965369       -0.0098500237
          -0.0395232339       -0.0169624720       -0.0244640589
vibration 23
          -0.0301066471       -0.0547294905       -0.0178489219
          -0.0033777484       -0.0004011509       -0.0023106290
          -0.0033777484       -0.0004011509        0.0023106290
          -0.0301066471       -0.0547294905        0.0178489219
           0.2148527168        0.5765073402        0.2812024124
           0.1513855711        0.0701387199       -0.0877103758
           0.0324546733        0.0097850415        0.0385536706
           0.0324546733        0.0097850415       -0.0385536706
           0.2148527168        0.5765073402       -0.2812024124
           0.1513855711        0.0701387199        0.0877103758
vibration 24
          -0.0305067364       -0.0553281790       -0.0167010494
          -0.0010452545       -0.0004817582        0.0001631375
           0.0010452545        0.0004817582        0.0001631375
           0.0305067364        0.0553281790       -0.0167010494
           0.2154514430        0.5773278705        0.2801921554
           0.1534326716        0.0733813583       -0.0917437548
           0.0075534513        0.0046227321        0.0084656830
          -0.0075534513       -0.0046227321        0.0084656830
          -0.2154514430       -0.5773278705        0.2801921554
          -0.1534326716       -0.0733813583       -0.0917437548
