[Molden Format]

[FREQ]
        -129.1479563951
         249.2734416537
         262.2165686987
         406.7299717368
         434.5542309934
         872.3068813015
         940.8819428133
         998.7556487508
        1165.9452158759
        1194.5598634363
        1216.9428477832
        1289.2114526694
        1385.1241729541
        1407.4248120675
        1540.5633022960
        1541.3161757909
        1620.6923103040
        1703.7066278119
        1741.6411841856
        1748.6252766928
        1830.0487678829
        1831.8649844249
        1838.5055934312
        1838.9434210414
        1848.6199409865
        1854.6992858328
        3566.1169498349
        3566.1392054492
        3608.4268964216
        3612.6766433672
        3720.1832902493
        3723.7940459849
        3749.8383830518
        3749.8498555249
        3751.5374828946
        3751.8562753965

[FR-COORD]
C          1.5909308256       -0.2212416510       -3.1699863317
C          1.5909308256       -0.2212416510       -0.2569692083
H          1.5909308256        1.6979424175       -3.8970472957
H          3.2549245869       -1.1821079776       -3.8920562849
H         -0.0715346815       -1.1812046016       -3.8957990166
C         -0.7581947723        1.1272413765        0.8947114348
H          1.6654844330       -2.1661666109        0.4048095812
H          3.3069031135        0.6957192902        0.4068670881
C         -2.3688413306       -0.6251090145        2.5742319640
H         -0.1479851039        2.7411103479        2.0123548708
H         -1.9407188743        1.8667171000       -0.6156044189
H         -3.9854670226        0.3872897856        3.3325802244
H         -3.0619790835       -2.2279731471        1.4960346999
H         -1.2633566050       -1.3415577418        4.1479183101

[FR-NORM-COORD]
vibration 1
           0.1149805810        0.1085750001       -0.0278335320
          -0.0788466087       -0.1123734233       -0.0282567018
           0.2252241442        0.1612371598        0.1112035235
           0.1276868145        0.1038674388        0.0078070572
           0.1283313342        0.2172085525       -0.2020376568
          -0.0819690700       -0.0625896615       -0.0949020990
          -0.2493197567       -0.1711631080       -0.1821264202
          -0.0693539198       -0.2742998866        0.1708413924
           0.0379262046        0.0577835976        0.1449354661
          -0.1017145280        0.0881803987       -0.3018522368
          -0.1658270368       -0.2805052427       -0.1358097016
           0.0504017225        0.0898881730        0.1285802321
           0.0232252265       -0.0523197170        0.3181042268
           0.1255158350        0.2203583865        0.1574076570
vibration 2
          -0.0291303010        0.0060846509        0.0084340736
           0.0072844543        0.0075843486        0.0081201767
           0.3627140109        0.0063170277        0.0087840485
          -0.2434330434       -0.3449757868       -0.0180032370
          -0.2430108594        0.3567137459        0.0348005551
           0.0084646871        0.0094870416        0.0039250326
          -0.0077423076        0.0076342161        0.0093060396
           0.0202654643       -0.0072124912       -0.0050105842
           0.0175173589       -0.0186645130       -0.0173122806
          -0.0139973793        0.0139187290        0.0097809488
           0.0133631035       -0.0015748793       -0.0050395412
          -0.2134385553       -0.1518907574       -0.3320459350
           0.3672236928       -0.2219492430        0.0602267667
          -0.0911931438        0.2895395839        0.1994919844
vibration 3
           0.0330951802       -0.0310368081        0.0055101445
          -0.0216692280        0.0543437865        0.0042828087
           0.4383723270       -0.0560186964       -0.0606727660
          -0.1445839305       -0.3928538446        0.0772385137
          -0.1430885490        0.2786392483       -0.0002209895
          -0.0510709798        0.0223557848       -0.0182371743
          -0.0027427749        0.0702088603        0.0475041928
          -0.0403202348        0.0879089732        0.0064182596
           0.0305504368       -0.0338408987        0.0035319807
          -0.0838236414        0.0406065718       -0.0268797941
          -0.0821632004       -0.0162145750       -0.0133351395
           0.2254787624        0.0098368237        0.3604902673
          -0.2581865369        0.1528389531       -0.0885719770
           0.1993455135       -0.3157132288       -0.2434813628
vibration 4
          -0.0729383863        0.0643270299        0.0341559405
           0.1715394872       -0.0016126096        0.0311760024
          -0.0454527193        0.0969004618        0.1200566058
          -0.2220383328       -0.0092812769       -0.2090386040
          -0.2255988459        0.2087211809        0.1938383815
           0.0317226025       -0.1537284730       -0.0759040653
           0.3885093251        0.0139477183        0.0563899517
           0.0921049449        0.2067450262       -0.0495225206
          -0.0896890508        0.0460984299        0.0213227391
          -0.1094092689       -0.0124880493       -0.2038528930
           0.0658836439       -0.3370660949       -0.1906955929
           0.0611339812        0.2987992227        0.0078204006
          -0.3338327606        0.0909451779        0.1109371653
          -0.1551298132       -0.0224207416        0.0360613559
vibration 5
          -0.1149233405        0.0323096399        0.1525408853
          -0.0123040446       -0.0844031322        0.1192350685
          -0.2634115737        0.0763189399        0.2715969050
          -0.1339004226        0.1453671012       -0.0360988825
          -0.1374399375        0.0123214892        0.2320060557
           0.0030498941        0.0743385339       -0.1263197612
          -0.2392861573       -0.1040167046        0.0797997095
           0.0426266826       -0.2494906407        0.2006782929
           0.1416749487       -0.0032071168       -0.1320554489
          -0.0968616494        0.1904813630       -0.2422121269
           0.0289478093       -0.1248191083       -0.2408813507
           0.1314499049       -0.1480374729        0.0342219914
           0.1761797658        0.0298132666       -0.2023466557
           0.2833563464       -0.0546195432       -0.2563242980
vibration 6
          -0.0110303804       -0.0071932651        0.0472555134
          -0.0593882006       -0.0478060068       -0.0026080292
           0.0707124237        0.0899429196        0.3061807553
           0.0533416835        0.1019831859        0.0549456855
           0.0294107267        0.1134341258       -0.2006268495
          -0.0224824790       -0.0412675878       -0.0600928807
           0.2792124445        0.0517931500        0.2475522679
          -0.1815399139        0.3163723198       -0.1992423692
           0.0235441077        0.0208084314       -0.0376725125
           0.1888149111       -0.3084675322        0.2048260331
           0.0999324642        0.3607143190        0.0428093787
           0.0956603592        0.0601270837        0.0591652726
          -0.0300117434       -0.1140885201        0.2001841612
           0.2202879926        0.2266595267       -0.0833284924
vibration 7
           0.0186930057        0.0227506432        0.0183247896
           0.0448107598        0.0549014932       -0.0043323741
          -0.1013545519       -0.0837618920       -0.2605870264
          -0.0842963028       -0.1111497144       -0.0389815349
          -0.0591248908       -0.1026463847        0.3635382259
          -0.0282698065       -0.0246048963       -0.0602984750
          -0.2289630357       -0.0361950556       -0.2436600253
           0.0723998341       -0.2048687838        0.2847608727
          -0.0228072533       -0.0223997988       -0.0134541652
           0.0235913068       -0.2579437988        0.2473835955
           0.0994928080        0.3211460726        0.0078822566
           0.0854177690        0.0734946392        0.0909968749
          -0.1368155949       -0.1871711538        0.3040337978
           0.1816900021        0.2241822370       -0.0438122782
vibration 8
          -0.0463820860        0.0417309275        0.1012529975
          -0.1332543865        0.0895994879       -0.0398119031
           0.0900331354       -0.0755991960       -0.1988588561
           0.0567998534       -0.0995500379        0.5422947793
           0.0781547629       -0.1169697367        0.0349312048
           0.0854133850       -0.1416492883        0.0031754467
          -0.1126138355        0.0419037907       -0.2091245032
          -0.1325462101        0.0335107005        0.0047916000
           0.1016605646        0.0184097269       -0.0589219978
           0.0658193548       -0.1061112481       -0.0558809339
          -0.0514047337       -0.2203446039        0.0835175873
           0.2058605841        0.3853193372       -0.3411450336
          -0.0942966191        0.0994106572       -0.0472856129
          -0.1943630588       -0.0379060761        0.1189558165
vibration 9
          -0.0461175950        0.0299737823        0.1286424414
           0.0218443615        0.0036128755       -0.1138852671
           0.1008236000       -0.0236008322        0.0054317244
           0.0662950876       -0.0349206845        0.4968317249
           0.0709284548       -0.0742704258        0.0180533911
           0.0662123054        0.0518752942       -0.0799162476
           0.0874409223       -0.0378615732       -0.2583689483
           0.1249633877       -0.0535328509       -0.3139657099
          -0.1074940483       -0.0368083146        0.0816373095
           0.2503854838        0.0829285024       -0.2179101347
           0.1969238036        0.0812308858       -0.1745471397
          -0.2288321716       -0.3560077300        0.2707960558
           0.0680603162       -0.0773849059        0.0158863500
           0.0435629886       -0.0858909122       -0.0384108494
vibration 10
           0.0636019212        0.0219957893        0.0312482356
          -0.0286330071       -0.0363430856       -0.0394663706
          -0.1209590911       -0.0288227884       -0.0971687475
          -0.0978414462       -0.0858807839       -0.1954070230
          -0.0782315553       -0.0208097059        0.4189142921
          -0.0424066699       -0.0409497156       -0.0149398830
           0.2195733052       -0.0566096769       -0.1238503841
          -0.2673496661        0.2196838303        0.2054722221
           0.0168667140        0.0655608184        0.0303826311
           0.3605035668       -0.1183429429       -0.1341391823
          -0.1739759956        0.1062003228        0.1587457461
          -0.1483105568       -0.1819353194        0.0069244574
           0.2370403621        0.1935745311       -0.2973038172
          -0.0427179131       -0.1492668529       -0.0282097945
vibration 11
           0.0502178245       -0.0632368378        0.0750024066
          -0.0029421732        0.0469756246       -0.0961297259
          -0.0899452536        0.0740026213        0.4519195088
          -0.0199321181        0.0960469094       -0.2909684164
          -0.0859858729        0.1235675451        0.1547622067
           0.0154375027        0.0669684278       -0.0820630854
          -0.2698506564        0.1225259740        0.1288297703
           0.0473365018       -0.0652316977       -0.0822453884
           0.0221647069       -0.0937593475        0.0535221692
           0.1099126190        0.0027993670       -0.0343681495
          -0.2425003749        0.1522966498        0.1497762861
           0.0798869169        0.2046471327       -0.2145182922
          -0.2065281535       -0.0075798876        0.0624251332
          -0.3330197574       -0.1904602424        0.2657785117
vibration 12
          -0.0075675840        0.0191576645       -0.0998568465
          -0.1003151787        0.0517062884        0.1359513871
          -0.0256605070       -0.0139068732       -0.2103157795
          -0.0262672190       -0.0069423844       -0.1218247325
          -0.0052957087        0.0050214204       -0.1075591973
           0.1436726813       -0.0045359673       -0.1027366387
          -0.1664566547        0.1308272323        0.3628047365
          -0.2458188165        0.1563530270        0.3532558183
          -0.0380578540       -0.0687943104        0.0649072340
           0.3864577849       -0.0033179750       -0.2455227040
           0.3496537307        0.0684605008       -0.2225188174
          -0.0655025736       -0.0929023845        0.0515400850
          -0.0540475009       -0.0695917127        0.0621048023
          -0.1200586177       -0.1446347422        0.0986925196
vibration 13
           0.0545801196       -0.0794725421        0.0273149142
          -0.0725477818        0.1272914642       -0.0724012241
          -0.0914095439        0.0583453870        0.4040011886
           0.0029241891        0.0886496631       -0.3148167962
          -0.0929664096        0.1361646361        0.0894146887
           0.0801240673       -0.1190493812        0.0781994238
          -0.3425044032        0.1565173794       -0.0031415354
          -0.0025064838       -0.0640350250       -0.0143187290
          -0.0624969251        0.0708593618       -0.0333751946
          -0.0575088086       -0.0012777572       -0.0316532006
           0.2164181956       -0.2936737714       -0.0933993083
          -0.1052502399       -0.1999763263        0.2364517702
           0.1822419283       -0.0390334645       -0.0210482832
           0.2946160880        0.1627378701       -0.2483692448
vibration 14
           0.0802137435        0.0380071792        0.0232009899
          -0.1067328622       -0.0848688560       -0.0498523234
          -0.1287128878       -0.0191016388       -0.1228164348
          -0.0834039604       -0.1050904029       -0.1628402109
          -0.0473446901       -0.0249166558        0.4106802176
           0.0645519643        0.1014823046        0.0813286618
           0.2943358478       -0.0775056756       -0.0680900248
          -0.2439924756        0.2135343316       -0.1415808077
          -0.0203815546       -0.0714338761       -0.0538406564
          -0.1572771493        0.3078726073       -0.0751815020
           0.1803541101       -0.2015149784       -0.1553677772
           0.1493928901        0.1481846791        0.0154498693
          -0.2206572047       -0.2134819978        0.2779453050
           0.0471346224        0.1722121993        0.0118392557
vibration 15
          -0.0452281949       -0.0554203406       -0.0029283117
           0.0427951017        0.0313821728        0.0072953838
           0.0670963899        0.0118650934        0.1842481898
           0.0469130090        0.0763749387        0.0330070137
           0.0010628252        0.0372931683       -0.2451321800
           0.0169063484        0.0333579503        0.0383739058
           0.1529223153       -0.0854454090       -0.3447556994
          -0.1467231141        0.0697972777        0.4526586323
          -0.0327577848       -0.0292127792       -0.0568569217
           0.3469949183        0.1470116947       -0.3009117209
          -0.3022155739       -0.0753637772        0.2333859431
           0.0651994190        0.0454584730        0.0532532781
          -0.1066325554       -0.1525234170        0.1648019380
           0.0930931284        0.1623944605       -0.0624792703
vibration 16
           0.0110570752        0.0605632591       -0.0053882370
           0.0168883286       -0.0302319138        0.0008970222
          -0.0081224712       -0.0132623216       -0.2134967468
          -0.0257126339       -0.0604633510        0.0715647314
           0.0225396645       -0.0605573476        0.1371409497
           0.0278764446       -0.0183389836        0.0092050870
          -0.2150118941        0.1330937919        0.5097898318
           0.1476326505       -0.0829691831       -0.2570713942
          -0.0413820830        0.0034834882       -0.0454161279
           0.2469179899        0.0260039393       -0.1786852785
          -0.4449436217       -0.1181104787        0.3317752223
           0.0005045453       -0.0318339589        0.0916276793
          -0.0215528743       -0.1083760373        0.1023529278
           0.1258168334        0.1322066528       -0.1103631373
vibration 17
           0.0340298733       -0.0118908542        0.0097190154
          -0.0396028557        0.0528187056        0.0937413510
          -0.0502880545       -0.0429611152       -0.0810736034
          -0.0363640942        0.0289553361       -0.2184495168
           0.0072052163        0.0689344491       -0.0369944333
          -0.1043316669       -0.0176034845        0.0441719440
           0.0958459451       -0.0520182858       -0.2283878331
           0.3166982649       -0.2000222128       -0.4627040461
           0.0134283763       -0.0343054212       -0.0060587288
           0.5010024682        0.0004947594       -0.3215588248
           0.1937972630        0.0545401054       -0.1533870546
           0.0879295795        0.1641837928       -0.1232614329
          -0.0316890074        0.0266203778       -0.0667822913
           0.0645888747        0.0820223262        0.0069066527
vibration 18
           0.0280781008       -0.0174864793        0.0372283699
          -0.0700071095        0.0258063163        0.1099558623
          -0.0783807879       -0.0924791478       -0.1653664194
          -0.0787880463        0.0342616504       -0.2891117334
           0.0476770893        0.1075961424       -0.1809247020
           0.1005296398        0.0074025007       -0.0865790343
           0.1733322493       -0.1358765514       -0.3882077561
           0.1073065481       -0.0136426528       -0.2989434394
          -0.0009584832        0.0469911435       -0.0164576424
          -0.2058359395       -0.0935585569        0.2234790167
          -0.3695629739       -0.0776193086        0.2379202300
          -0.1110336144       -0.2407781986        0.1437321014
          -0.0287735119       -0.0870304432        0.1953930036
          -0.1422761924       -0.1475916097       -0.0036276818
vibration 19
          -0.0079775878        0.0051797278        0.1116827064
           0.0102220155       -0.0140366903       -0.0370466062
           0.0270460836       -0.1703877867       -0.3543659537
          -0.1592924808        0.0804862543       -0.3401874879
           0.1684126226        0.0539992906       -0.3616589303
           0.0343633061        0.0122179263       -0.0185788087
          -0.0433050844        0.0110901882        0.0413724346
          -0.0800687398        0.0644793753        0.0798776513
          -0.0680530984       -0.0601762823        0.0657011549
          -0.1170985345        0.0242165048        0.0515521379
          -0.0436645027        0.0107455590        0.0411536058
           0.0805997691        0.3415407157       -0.1565156384
           0.2044195489        0.0931413411       -0.3341863150
           0.3373658882        0.1671788199       -0.1167984660
vibration 20
          -0.0149299284        0.0081441359        0.1113516030
           0.0396308786       -0.0126074323       -0.0759382327
           0.0734023298       -0.1599319181       -0.3352636932
          -0.1450703737        0.0976855452       -0.3087338655
           0.1659176118        0.0251746348       -0.3256975022
          -0.0628992563       -0.0127151439        0.0581057103
          -0.1478485506        0.0681348060        0.1701789107
          -0.0687943912        0.0468330130        0.1184431315
           0.0720988953        0.0540581533       -0.0675400300
           0.1213701518        0.0104096785       -0.0781403063
           0.1887076054       -0.0236647890       -0.1388657200
          -0.0536209476       -0.3137959504        0.1565179265
          -0.2063883790       -0.0692381309        0.2945855571
          -0.3313235646       -0.1207273127        0.1376474560
vibration 21
           0.0233664830       -0.0156720729        0.0110005076
          -0.0249256518        0.0108779344       -0.0286432311
          -0.2943942626       -0.0629334767       -0.1217522169
           0.0761641579       -0.0036406292        0.1295381356
          -0.1231021491        0.3086393471       -0.0877491963
          -0.0003630494       -0.0383749430        0.0092703966
           0.3064971461        0.0822404183        0.1617388916
           0.0855887215       -0.3096668128        0.1465654302
          -0.0127200758        0.0272408543       -0.0028507411
          -0.1859320920        0.2003415370       -0.2233638384
           0.0687810078        0.3259539806        0.1256346059
           0.0475803733        0.1382277031       -0.0347274853
           0.2280665555       -0.1942903313        0.1681220472
          -0.0349061718       -0.2952170639       -0.1303752251
vibration 22
          -0.0237742473        0.0114154515       -0.0073796280
           0.0228241632       -0.0158736285        0.0313725883
           0.3276964301        0.0409536844        0.0766287669
          -0.0454494848        0.0676964335       -0.1468440821
           0.0971786903       -0.2809323518        0.1113131546
           0.0014676868       -0.0391232609        0.0150206500
          -0.3053225450       -0.0874916866       -0.1588676779
          -0.0728876537        0.3018546176       -0.1756446358
          -0.0115019531        0.0247842941        0.0020218966
          -0.1603224544        0.2068823923       -0.2426373255
           0.0717005564        0.3227974847        0.1299001521
           0.0154045478        0.1339374679       -0.1002658129
           0.1862367246       -0.1842246919        0.1795082830
           0.0165539670       -0.2976589788       -0.1616935730
vibration 23
          -0.0181390627       -0.0368871925        0.0017159732
          -0.0055161068       -0.0082412670       -0.0039798201
           0.2270045588       -0.1121514855       -0.2101856021
           0.2610532748        0.4407425033        0.0104667907
          -0.2292404237        0.1984482267        0.1861627007
           0.0071380339        0.0055304221        0.0057062100
           0.0181618877       -0.0002803893        0.0251819791
          -0.0114510418       -0.0069714112        0.0029812555
           0.0229667711        0.0078425277        0.0331861709
           0.0006463729        0.0061637423        0.0122677725
          -0.0086601448       -0.0294686659        0.0046325063
          -0.2792096083       -0.1471655511       -0.4031476674
          -0.3223374691        0.0968883820        0.1146024411
           0.2672378883       -0.0680979388       -0.1790918560
vibration 24
          -0.0214023425       -0.0348103448       -0.0018778978
          -0.0023073854       -0.0083339741        0.0051485260
           0.2701286367       -0.1016465489       -0.1906335013
           0.2548240978        0.4436635480       -0.0027194632
          -0.2166737089        0.1554494560        0.2065777214
          -0.0030629817        0.0024931784       -0.0092616199
          -0.0204351086       -0.0148295855       -0.0052820783
          -0.0082308591        0.0256871799       -0.0356917504
          -0.0224468504       -0.0128849038       -0.0317148871
           0.0027324356       -0.0316775025        0.0314737168
          -0.0088822390       -0.0170559177       -0.0171788811
           0.2763357329        0.1341100661        0.4096377862
           0.2967873691       -0.0685959046       -0.1454780168
          -0.2605374879        0.1123397162        0.1982519071
vibration 25
          -0.0287765807        0.0145014140        0.0013549574
          -0.0345364605        0.0212848838       -0.0235593611
           0.3321365480        0.0442284258        0.0832973600
          -0.0720561098        0.0580269396       -0.1613672596
           0.1158524212       -0.2998110381        0.0891263434
          -0.0132929074        0.0443922377       -0.0072922896
           0.3078067795        0.0813507277        0.1240483385
           0.0787032411       -0.3005510175        0.1358599689
          -0.0201390621        0.0238956386        0.0079681881
           0.1828275192       -0.1872411825        0.2156029554
          -0.0469069067       -0.3045527499       -0.1475964292
           0.0236069268        0.1620940534       -0.0880938753
           0.2184114286       -0.1881969205        0.1676691730
           0.0115444208       -0.3045405986       -0.1622103528
vibration 26
          -0.0240067426        0.0137342174        0.0015396676
          -0.0483508524        0.0242195826       -0.0084348077
           0.3228889669        0.0407665865        0.0760946109
          -0.0771752771        0.0556347572       -0.1839220341
           0.1173915113       -0.2940771897        0.0893374572
           0.0278044601       -0.0465780840       -0.0073005900
           0.3218663386        0.0712464598        0.0968583224
           0.0966559141       -0.3128175460        0.0900987936
           0.0183151154       -0.0199294644       -0.0059000316
          -0.2227841999        0.1756238653       -0.1866997690
           0.0200321295        0.3007512030        0.1649900724
          -0.0365370739       -0.1793592804        0.0968427957
          -0.2142489543        0.1887255368       -0.1635143521
          -0.0156777517        0.2934901971        0.1591908945
vibration 27
          -0.0001143286        0.0001624490        0.0403008205
           0.0002905813       -0.0000840848       -0.0020371712
           0.0001524113        0.4049657132       -0.1488034878
           0.3528234848       -0.2037173880       -0.1488678571
          -0.3515684889       -0.2032071512       -0.1489950441
          -0.0010703082       -0.0009181539        0.0011376981
          -0.0000893923        0.0028887823       -0.0027914736
          -0.0043938426       -0.0025401025       -0.0037259178
           0.0197660155        0.0212618132       -0.0204376578
          -0.0024991900       -0.0044775790       -0.0014263719
           0.0001427011       -0.0015913287        0.0022872068
          -0.2999028885        0.1913265633        0.1395299436
          -0.1270690465       -0.2961873477       -0.2032425140
           0.2076990566       -0.1306216962        0.2902381133
vibration 28
          -0.0001459360        0.0001687926        0.0354894549
           0.0006572617       -0.0004807967       -0.0017501122
           0.0001717127        0.3567537832       -0.1311341678
           0.3107084645       -0.1794405715       -0.1308522719
          -0.3096885606       -0.1790303985       -0.1312450501
           0.0016764420        0.0005870405       -0.0012365822
          -0.0005049578        0.0090972868       -0.0045387095
          -0.0059365781       -0.0027773176       -0.0035165874
          -0.0224683113       -0.0240839635        0.0232041155
           0.0028132359        0.0069957451        0.0031308441
          -0.0048334865        0.0046881030       -0.0081641915
           0.3402283661       -0.2173028484       -0.1581582886
           0.1442708544        0.3362172002        0.2307360453
          -0.2357520921        0.1482878340       -0.3295498521
vibration 29
          -0.0022362405        0.0013099173       -0.0021885480
           0.0369888472       -0.0199169153        0.0287914067
          -0.0009787947       -0.0151546341        0.0021627246
           0.0091054448       -0.0052191799       -0.0024421691
           0.0123078099        0.0083894857        0.0023395758
           0.0100024158       -0.0492460336        0.0081251783
          -0.0129403940        0.4688008021       -0.1556134358
          -0.4171540998       -0.2307880555       -0.1600487514
          -0.0004404299        0.0032622661       -0.0008130600
           0.1537196619        0.3902069473        0.2770764746
          -0.2856543532        0.1718612758       -0.3643955690
           0.0079758337       -0.0064374411       -0.0033006620
          -0.0044603216       -0.0098524568       -0.0104997399
           0.0104329498       -0.0027355634        0.0109017313
vibration 30
          -0.0017536914        0.0009905942       -0.0020120031
           0.0384159625       -0.0242053534        0.0277048898
          -0.0009545909       -0.0097999560        0.0010357163
           0.0108818472       -0.0062638791       -0.0024474618
           0.0084382404        0.0058983035        0.0011317264
          -0.0143800642        0.0503844888       -0.0092976432
          -0.0076664449        0.4816137482       -0.1641279573
          -0.4030446237       -0.2249997064       -0.1566418882
           0.0001533687       -0.0027334372        0.0007867133
          -0.1513576701       -0.3782829296       -0.2680174010
           0.2898184825       -0.1748688303        0.3802828277
          -0.0093019817        0.0079886961        0.0036609970
           0.0029149476        0.0064560877        0.0075663929
          -0.0068647612        0.0012997179       -0.0070255670
vibration 31
           0.0047585343        0.0132030119       -0.0001212949
          -0.0331912126       -0.0584469992       -0.0001830470
           0.0007961152       -0.1043190993        0.0353398946
           0.0169202298       -0.0072770756       -0.0072667225
          -0.0717695976       -0.0400923903       -0.0277057378
           0.0367691386        0.0176756694        0.0533861437
          -0.0142075749        0.4656620943       -0.1580971968
           0.4011648218        0.2186034360        0.1570356304
          -0.0089777927       -0.0017425390       -0.0106381868
          -0.1469461072       -0.3776456364       -0.2626718870
          -0.2822059225        0.1739156001       -0.3632906561
           0.0144439835       -0.0099804187       -0.0091694042
           0.0268414259        0.0671725326        0.0477993809
           0.0625988612       -0.0370396916        0.0826578455
vibration 32